ITEM: TIMESTEP
0
ITEM: NUMBER OF ATOMS
420
ITEM: BOX BOUNDS pp ss pp
0.0000000000000000e+00 2.2653923264628304e+01
-1.9618873042551413e-03 1.9620834929855668e+01
-2.8317404080785380e-01 2.8317404080785380e-01
ITEM: ATOMS id type xs ys zs
1 2 0 9.998e-05 0.5
2 2 0.025 0.05009 0.5
3 2 0.05 9.998e-05 0.5
4 2 0.075 0.05009 0.5
5 2 0.1 9.998e-05 0.5
6 2 0.125 0.05009 0.5
7 2 0.15 9.998e-05 0.5
8 2 0.175 0.05009 0.5
9 2 0.2 9.998e-05 0.5
10 2 0.225 0.05009 0.5
11 2 0.25 9.998e-05 0.5
12 2 0.275 0.05009 0.5
13 2 0.3 9.998e-05 0.5
14 2 0.325 0.05009 0.5
15 2 0.35 9.998e-05 0.5
16 2 0.375 0.05009 0.5
17 2 0.4 9.998e-05 0.5
18 2 0.425 0.05009 0.5
19 2 0.45 9.998e-05 0.5
20 2 0.475 0.05009 0.5
21 2 0 0.10008 0.5
23 2 0.05 0.10008 0.5
25 2 0.1 0.10008 0.5
27 2 0.15 0.10008 0.5
29 2 0.2 0.10008 0.5
31 2 0.25 0.10008 0.5
33 2 0.3 0.10008 0.5
35 2 0.35 0.10008 0.5
37 2 0.4 0.10008 0.5
39 2 0.45 0.10008 0.5
22 1 0.025 0.15007 0.5
41 1 0 0.20006 0.5
43 1 0.05 0.20006 0.5
24 1 0.075 0.15007 0.5
45 1 0.1 0.20006 0.5
26 1 0.125 0.15007 0.5
28 1 0.175 0.15007 0.5
47 1 0.15 0.20006 0.5
30 1 0.225 0.15007 0.5
49 1 0.2 0.20006 0.5
32 1 0.275 0.15007 0.5
51 1 0.25 0.20006 0.5
53 1 0.3 0.20006 0.5
34 1 0.325 0.15007 0.5
55 1 0.35 0.20006 0.5
36 1 0.375 0.15007 0.5
38 1 0.425 0.15007 0.5
57 1 0.4 0.20006 0.5
40 1 0.475 0.15007 0.5
59 1 0.45 0.20006 0.5
42 1 0.025 0.25005 0.5
44 1 0.075 0.25005 0.5
46 1 0.125 0.25005 0.5
48 1 0.175 0.25005 0.5
50 1 0.225 0.25005 0.5
52 1 0.275 0.25005 0.5
54 1 0.325 0.25005 0.5
56 1 0.375 0.25005 0.5
58 1 0.425 0.25005 0.5
60 1 0.475 0.25005 0.5
61 1 0 0.30004 0.5
62 1 0.025 0.35003 0.5
63 1 0.05 0.30004 0.5
64 1 0.075 0.35003 0.5
65 1 0.1 0.30004 0.5
66 1 0.125 0.35003 0.5
67 1 0.15 0.30004 0.5
68 1 0.175 0.35003 0.5
69 1 0.2 0.30004 0.5
70 1 0.225 0.35003 0.5
71 1 0.25 0.30004 0.5
72 1 0.275 0.35003 0.5
73 1 0.3 0.30004 0.5
74 1 0.325 0.35003 0.5
75 1 0.35 0.30004 0.5
76 1 0.375 0.35003 0.5
77 1 0.4 0.30004 0.5
78 1 0.425 0.35003 0.5
79 1 0.45 0.30004 0.5
80 1 0.475 0.35003 0.5
81 1 0 0.40002 0.5
83 1 0.05 0.40002 0.5
85 1 0.1 0.40002 0.5
87 1 0.15 0.40002 0.5
89 1 0.2 0.40002 0.5
91 1 0.25 0.40002 0.5
93 1 0.3 0.40002 0.5
95 1 0.35 0.40002 0.5
97 1 0.4 0.40002 0.5
99 1 0.45 0.40002 0.5
82 1 0.025 0.45001 0.5
84 1 0.075 0.45001 0.5
86 1 0.125 0.45001 0.5
88 1 0.175 0.45001 0.5
90 1 0.225 0.45001 0.5
92 1 0.275 0.45001 0.5
94 1 0.325 0.45001 0.5
96 1 0.375 0.45001 0.5
98 1 0.425 0.45001 0.5
100 1 0.475 0.45001 0.5
101 1 0 0.5 0.5
102 1 0.025 0.54999 0.5
103 1 0.05 0.5 0.5
104 1 0.075 0.54999 0.5
105 1 0.1 0.5 0.5
106 1 0.125 0.54999 0.5
107 1 0.15 0.5 0.5
108 1 0.175 0.54999 0.5
109 1 0.2 0.5 0.5
110 1 0.225 0.54999 0.5
111 1 0.25 0.5 0.5
112 1 0.275 0.54999 0.5
113 1 0.3 0.5 0.5
114 1 0.325 0.54999 0.5
115 1 0.35 0.5 0.5
116 1 0.375 0.54999 0.5
117 1 0.4 0.5 0.5
118 1 0.425 0.54999 0.5
119 1 0.45 0.5 0.5
120 1 0.475 0.54999 0.5
121 1 0 0.59998 0.5
123 1 0.05 0.59998 0.5
125 1 0.1 0.59998 0.5
127 1 0.15 0.59998 0.5
129 1 0.2 0.59998 0.5
131 1 0.25 0.59998 0.5
133 1 0.3 0.59998 0.5
135 1 0.35 0.59998 0.5
137 1 0.4 0.59998 0.5
139 1 0.45 0.59998 0.5
122 1 0.025 0.64997 0.5
141 1 0 0.69996 0.5
143 1 0.05 0.69996 0.5
124 1 0.075 0.64997 0.5
145 1 0.1 0.69996 0.5
126 1 0.125 0.64997 0.5
128 1 0.175 0.64997 0.5
147 1 0.15 0.69996 0.5
130 1 0.225 0.64997 0.5
149 1 0.2 0.69996 0.5
132 1 0.275 0.64997 0.5
151 1 0.25 0.69996 0.5
153 1 0.3 0.69996 0.5
134 1 0.325 0.64997 0.5
155 1 0.35 0.69996 0.5
136 1 0.375 0.64997 0.5
138 1 0.425 0.64997 0.5
157 1 0.4 0.69996 0.5
140 1 0.475 0.64997 0.5
159 1 0.45 0.69996 0.5
142 1 0.025 0.74995 0.5
144 1 0.075 0.74995 0.5
146 1 0.125 0.74995 0.5
148 1 0.175 0.74995 0.5
150 1 0.225 0.74995 0.5
152 1 0.275 0.74995 0.5
154 1 0.325 0.74995 0.5
156 1 0.375 0.74995 0.5
158 1 0.425 0.74995 0.5
160 1 0.475 0.74995 0.5
161 1 0 0.79994 0.5
162 1 0.025 0.84993 0.5
163 1 0.05 0.79994 0.5
164 1 0.075 0.84993 0.5
165 1 0.1 0.79994 0.5
166 1 0.125 0.84993 0.5
167 1 0.15 0.79994 0.5
168 1 0.175 0.84993 0.5
169 1 0.2 0.79994 0.5
170 1 0.225 0.84993 0.5
171 1 0.25 0.79994 0.5
172 1 0.275 0.84993 0.5
173 1 0.3 0.79994 0.5
174 1 0.325 0.84993 0.5
175 1 0.35 0.79994 0.5
176 1 0.375 0.84993 0.5
177 1 0.4 0.79994 0.5
178 1 0.425 0.84993 0.5
179 1 0.45 0.79994 0.5
180 1 0.475 0.84993 0.5
181 1 0 0.89992 0.5
183 1 0.05 0.89992 0.5
185 1 0.1 0.89992 0.5
187 1 0.15 0.89992 0.5
189 1 0.2 0.89992 0.5
191 1 0.25 0.89992 0.5
193 1 0.3 0.89992 0.5
195 1 0.35 0.89992 0.5
197 1 0.4 0.89992 0.5
199 1 0.45 0.89992 0.5
182 1 0.025 0.94991 0.5
201 1 0 0.9999 0.5
202 1 0.05 0.9999 0.5
184 1 0.075 0.94991 0.5
203 1 0.1 0.9999 0.5
186 1 0.125 0.94991 0.5
188 1 0.175 0.94991 0.5
204 1 0.15 0.9999 0.5
190 1 0.225 0.94991 0.5
205 1 0.2 0.9999 0.5
192 1 0.275 0.94991 0.5
206 1 0.25 0.9999 0.5
207 1 0.3 0.9999 0.5
194 1 0.325 0.94991 0.5
208 1 0.35 0.9999 0.5
196 1 0.375 0.94991 0.5
198 1 0.425 0.94991 0.5
209 1 0.4 0.9999 0.5
200 1 0.475 0.94991 0.5
210 1 0.45 0.9999 0.5
211 2 0.5 9.998e-05 0.5
212 2 0.525 0.05009 0.5
213 2 0.55 9.998e-05 0.5
214 2 0.575 0.05009 0.5
215 2 0.6 9.998e-05 0.5
216 2 0.625 0.05009 0.5
217 2 0.65 9.998e-05 0.5
218 2 0.675 0.05009 0.5
219 2 0.7 9.998e-05 0.5
220 2 0.725 0.05009 0.5
221 2 0.75 9.998e-05 0.5
222 2 0.775 0.05009 0.5
223 2 0.8 9.998e-05 0.5
224 2 0.825 0.05009 0.5
225 2 0.85 9.998e-05 0.5
226 2 0.875 0.05009 0.5
227 2 0.9 9.998e-05 0.5
228 2 0.925 0.05009 0.5
229 2 0.95 9.998e-05 0.5
230 2 0.975 0.05009 0.5
231 2 0.5 0.10008 0.5
233 2 0.55 0.10008 0.5
235 2 0.6 0.10008 0.5
237 2 0.65 0.10008 0.5
239 2 0.7 0.10008 0.5
241 2 0.75 0.10008 0.5
243 2 0.8 0.10008 0.5
245 2 0.85 0.10008 0.5
247 2 0.9 0.10008 0.5
249 2 0.95 0.10008 0.5
232 1 0.525 0.15007 0.5
251 1 0.5 0.20006 0.5
253 1 0.55 0.20006 0.5
234 1 0.575 0.15007 0.5
255 1 0.6 0.20006 0.5
236 1 0.625 0.15007 0.5
238 1 0.675 0.15007 0.5
257 1 0.65 0.20006 0.5
240 1 0.725 0.15007 0.5
259 1 0.7 0.20006 0.5
242 1 0.775 0.15007 0.5
261 1 0.75 0.20006 0.5
263 1 0.8 0.20006 0.5
244 1 0.825 0.15007 0.5
265 1 0.85 0.20006 0.5
246 1 0.875 0.15007 0.5
248 1 0.925 0.15007 0.5
267 1 0.9 0.20006 0.5
250 1 0.975 0.15007 0.5
269 1 0.95 0.20006 0.5
252 1 0.525 0.25005 0.5
254 1 0.575 0.25005 0.5
256 1 0.625 0.25005 0.5
258 1 0.675 0.25005 0.5
260 1 0.725 0.25005 0.5
262 1 0.775 0.25005 0.5
264 1 0.825 0.25005 0.5
266 1 0.875 0.25005 0.5
268 1 0.925 0.25005 0.5
270 1 0.975 0.25005 0.5
271 1 0.5 0.30004 0.5
272 1 0.525 0.35003 0.5
273 1 0.55 0.30004 0.5
274 1 0.575 0.35003 0.5
275 1 0.6 0.30004 0.5
276 1 0.625 0.35003 0.5
277 1 0.65 0.30004 0.5
278 1 0.675 0.35003 0.5
279 1 0.7 0.30004 0.5
280 1 0.725 0.35003 0.5
281 1 0.75 0.30004 0.5
282 1 0.775 0.35003 0.5
283 1 0.8 0.30004 0.5
284 1 0.825 0.35003 0.5
285 1 0.85 0.30004 0.5
286 1 0.875 0.35003 0.5
287 1 0.9 0.30004 0.5
288 1 0.925 0.35003 0.5
289 1 0.95 0.30004 0.5
290 1 0.975 0.35003 0.5
291 1 0.5 0.40002 0.5
293 1 0.55 0.40002 0.5
295 1 0.6 0.40002 0.5
297 1 0.65 0.40002 0.5
299 1 0.7 0.40002 0.5
301 1 0.75 0.40002 0.5
303 1 0.8 0.40002 0.5
305 1 0.85 0.40002 0.5
307 1 0.9 0.40002 0.5
309 1 0.95 0.40002 0.5
292 1 0.525 0.45001 0.5
294 1 0.575 0.45001 0.5
296 1 0.625 0.45001 0.5
298 1 0.675 0.45001 0.5
300 1 0.725 0.45001 0.5
302 1 0.775 0.45001 0.5
304 1 0.825 0.45001 0.5
306 1 0.875 0.45001 0.5
308 1 0.925 0.45001 0.5
310 1 0.975 0.45001 0.5
311 1 0.5 0.5 0.5
312 1 0.525 0.54999 0.5
313 1 0.55 0.5 0.5
314 1 0.575 0.54999 0.5
315 1 0.6 0.5 0.5
316 1 0.625 0.54999 0.5
317 1 0.65 0.5 0.5
318 1 0.675 0.54999 0.5
319 1 0.7 0.5 0.5
320 1 0.725 0.54999 0.5
321 1 0.75 0.5 0.5
322 1 0.775 0.54999 0.5
323 1 0.8 0.5 0.5
324 1 0.825 0.54999 0.5
325 1 0.85 0.5 0.5
326 1 0.875 0.54999 0.5
327 1 0.9 0.5 0.5
328 1 0.925 0.54999 0.5
329 1 0.95 0.5 0.5
330 1 0.975 0.54999 0.5
331 1 0.5 0.59998 0.5
333 1 0.55 0.59998 0.5
335 1 0.6 0.59998 0.5
337 1 0.65 0.59998 0.5
339 1 0.7 0.59998 0.5
341 1 0.75 0.59998 0.5
343 1 0.8 0.59998 0.5
345 1 0.85 0.59998 0.5
347 1 0.9 0.59998 0.5
349 1 0.95 0.59998 0.5
332 1 0.525 0.64997 0.5
351 1 0.5 0.69996 0.5
353 1 0.55 0.69996 0.5
334 1 0.575 0.64997 0.5
355 1 0.6 0.69996 0.5
336 1 0.625 0.64997 0.5
338 1 0.675 0.64997 0.5
357 1 0.65 0.69996 0.5
340 1 0.725 0.64997 0.5
359 1 0.7 0.69996 0.5
342 1 0.775 0.64997 0.5
361 1 0.75 0.69996 0.5
363 1 0.8 0.69996 0.5
344 1 0.825 0.64997 0.5
365 1 0.85 0.69996 0.5
346 1 0.875 0.64997 0.5
348 1 0.925 0.64997 0.5
367 1 0.9 0.69996 0.5
350 1 0.975 0.64997 0.5
369 1 0.95 0.69996 0.5
352 1 0.525 0.74995 0.5
354 1 0.575 0.74995 0.5
356 1 0.625 0.74995 0.5
358 1 0.675 0.74995 0.5
360 1 0.725 0.74995 0.5
362 1 0.775 0.74995 0.5
364 1 0.825 0.74995 0.5
366 1 0.875 0.74995 0.5
368 1 0.925 0.74995 0.5
370 1 0.975 0.74995 0.5
371 1 0.5 0.79994 0.5
372 1 0.525 0.84993 0.5
373 1 0.55 0.79994 0.5
374 1 0.575 0.84993 0.5
375 1 0.6 0.79994 0.5
376 1 0.625 0.84993 0.5
377 1 0.65 0.79994 0.5
378 1 0.675 0.84993 0.5
379 1 0.7 0.79994 0.5
380 1 0.725 0.84993 0.5
381 1 0.75 0.79994 0.5
382 1 0.775 0.84993 0.5
383 1 0.8 0.79994 0.5
384 1 0.825 0.84993 0.5
385 1 0.85 0.79994 0.5
386 1 0.875 0.84993 0.5
387 1 0.9 0.79994 0.5
388 1 0.925 0.84993 0.5
389 1 0.95 0.79994 0.5
390 1 0.975 0.84993 0.5
391 1 0.5 0.89992 0.5
393 1 0.55 0.89992 0.5
395 1 0.6 0.89992 0.5
397 1 0.65 0.89992 0.5
399 1 0.7 0.89992 0.5
401 1 0.75 0.89992 0.5
403 1 0.8 0.89992 0.5
405 1 0.85 0.89992 0.5
407 1 0.9 0.89992 0.5
409 1 0.95 0.89992 0.5
392 1 0.525 0.94991 0.5
411 1 0.5 0.9999 0.5
412 1 0.55 0.9999 0.5
394 1 0.575 0.94991 0.5
413 1 0.6 0.9999 0.5
396 1 0.625 0.94991 0.5
398 1 0.675 0.94991 0.5
414 1 0.65 0.9999 0.5
400 1 0.725 0.94991 0.5
415 1 0.7 0.9999 0.5
402 1 0.775 0.94991 0.5
416 1 0.75 0.9999 0.5
417 1 0.8 0.9999 0.5
404 1 0.825 0.94991 0.5
418 1 0.85 0.9999 0.5
406 1 0.875 0.94991 0.5
408 1 0.925 0.94991 0.5
419 1 0.9 0.9999 0.5
410 1 0.975 0.94991 0.5
420 1 0.95 0.9999 0.5
ITEM: TIMESTEP
250
ITEM: NUMBER OF ATOMS
420
ITEM: BOX BOUNDS pp ss pp
0.0000000000000000e+00 2.2653923264628304e+01
-1.9618873042551413e-03 2.0032407227720743e+01
-2.8317404080785380e-01 2.8317404080785380e-01
ITEM: ATOMS id type xs ys zs
1 2 0 9.79261e-05 0.5
2 2 0.025 0.049061 0.5
3 2 0.05 9.79261e-05 0.5
4 2 0.075 0.049061 0.5
5 2 0.1 9.79261e-05 0.5
6 2 0.125 0.049061 0.5
7 2 0.15 9.79261e-05 0.5
8 2 0.175 0.049061 0.5
9 2 0.2 9.79261e-05 0.5
10 2 0.225 0.049061 0.5
11 2 0.25 9.79261e-05 0.5
12 2 0.275 0.049061 0.5
13 2 0.3 9.79261e-05 0.5
14 2 0.325 0.049061 0.5
15 2 0.35 9.79261e-05 0.5
16 2 0.375 0.049061 0.5
17 2 0.4 9.79261e-05 0.5
18 2 0.425 0.049061 0.5
19 2 0.45 9.79261e-05 0.5
20 2 0.475 0.049061 0.5
21 2 0 0.098024 0.5
23 2 0.05 0.098024 0.5
25 2 0.1 0.098024 0.5
27 2 0.15 0.098024 0.5
29 2 0.2 0.098024 0.5
31 2 0.25 0.098024 0.5
33 2 0.3 0.098024 0.5
35 2 0.35 0.098024 0.5
37 2 0.4 0.098024 0.5
39 2 0.45 0.098024 0.5
22 1 0.0267697 0.145899 0.5
100 1 0.474914 0.436644 0.5
43 1 0.0529767 0.195379 0.5
24 1 0.0762861 0.148409 0.5
45 1 0.101566 0.192412 0.5
26 1 0.124183 0.145674 0.5
28 1 0.180282 0.143635 0.5
47 1 0.149623 0.1967 0.5
30 1 0.229994 0.149329 0.5
49 1 0.199201 0.196244 0.5
32 1 0.276943 0.149287 0.5
51 1 0.249035 0.199252 0.5
53 1 0.302617 0.197394 0.5
34 1 0.327057 0.144578 0.5
55 1 0.352646 0.19277 0.5
36 1 0.375802 0.142332 0.5
38 1 0.42645 0.142505 0.5
57 1 0.404253 0.190638 0.5
40 1 0.477914 0.147991 0.5
59 1 0.449419 0.190369 0.5
42 1 0.0266374 0.242344 0.5
44 1 0.0742285 0.24209 0.5
46 1 0.123637 0.243791 0.5
48 1 0.171573 0.243094 0.5
50 1 0.224221 0.247446 0.5
52 1 0.279386 0.242181 0.5
54 1 0.330302 0.243654 0.5
56 1 0.377051 0.240094 0.5
58 1 0.427788 0.240358 0.5
60 1 0.476403 0.243558 0.5
98 1 0.42483 0.440034 0.5
62 1 0.0252052 0.338856 0.5
63 1 0.0490209 0.290076 0.5
64 1 0.0766772 0.342249 0.5
65 1 0.101612 0.29301 0.5
66 1 0.127337 0.346525 0.5
67 1 0.149909 0.295033 0.5
68 1 0.174307 0.345127 0.5
69 1 0.20078 0.294833 0.5
70 1 0.22738 0.339942 0.5
71 1 0.255046 0.292002 0.5
72 1 0.276844 0.343707 0.5
73 1 0.302799 0.292106 0.5
74 1 0.327349 0.343781 0.5
75 1 0.353774 0.29113 0.5
76 1 0.375372 0.337491 0.5
77 1 0.40079 0.290749 0.5
78 1 0.422828 0.342797 0.5
79 1 0.449705 0.290876 0.5
80 1 0.473987 0.343278 0.5
96 1 0.370859 0.444198 0.5
83 1 0.0551585 0.387731 0.5
85 1 0.107589 0.393677 0.5
87 1 0.154725 0.398409 0.5
89 1 0.201663 0.38988 0.5
91 1 0.253488 0.393213 0.5
93 1 0.299471 0.394232 0.5
95 1 0.349078 0.393704 0.5
97 1 0.395506 0.390389 0.5
99 1 0.447761 0.393584 0.5
82 1 0.0278323 0.437081 0.5
84 1 0.0805999 0.439073 0.5
86 1 0.128133 0.449057 0.5
88 1 0.17729 0.446803 0.5
90 1 0.224027 0.43673 0.5
92 1 0.275762 0.445838 0.5
94 1 0.323195 0.442189 0.5
291 1 0.498631 0.391317 0.5
103 1 0.0512985 0.487158 0.5
105 1 0.098896 0.492947 0.5
107 1 0.151054 0.495909 0.5
109 1 0.200169 0.49704 0.5
113 1 0.297539 0.49033 0.5
115 1 0.34906 0.493996 0.5
117 1 0.399489 0.489722 0.5
119 1 0.448201 0.490101 0.5
81 1 0.00352448 0.386577 0.5
61 1 0.00448112 0.293027 0.5
111 1 0.249266 0.491888 0.5
41 1 0.00107193 0.1921 0.5
101 1 0.00167848 0.486609 0.5
188 1 0.16878 0.939853 0.5
102 1 0.0244215 0.535565 0.5
204 1 0.140779 0.99295 0.5
104 1 0.0727086 0.536667 0.5
196 1 0.374536 0.930018 0.5
106 1 0.122956 0.543004 0.5
208 1 0.34755 0.986967 0.5
108 1 0.176561 0.544623 0.5
194 1 0.326875 0.93662 0.5
110 1 0.22449 0.543899 0.5
331 1 0.49575 0.580943 0.5
112 1 0.272178 0.539345 0.5
207 1 0.29724 0.98337 0.5
114 1 0.325113 0.5407 0.5
206 1 0.245041 0.980423 0.5
116 1 0.37511 0.535275 0.5
192 1 0.273307 0.93443 0.5
118 1 0.42408 0.538025 0.5
205 1 0.197147 0.984329 0.5
120 1 0.474689 0.533851 0.5
210 1 0.449298 0.985378 0.5
123 1 0.0475041 0.585499 0.5
125 1 0.0988132 0.588187 0.5
127 1 0.15132 0.590388 0.5
129 1 0.199 0.594392 0.5
131 1 0.248334 0.592822 0.5
133 1 0.297601 0.585862 0.5
135 1 0.349856 0.586809 0.5
137 1 0.398158 0.586456 0.5
139 1 0.44698 0.583934 0.5
122 1 0.0222796 0.637992 0.5
200 1 0.482414 0.931802 0.5
143 1 0.0495208 0.687167 0.5
124 1 0.0753159 0.636811 0.5
145 1 0.0988357 0.68794 0.5
126 1 0.120095 0.639859 0.5
128 1 0.172542 0.640449 0.5
147 1 0.146608 0.690834 0.5
130 1 0.221128 0.643421 0.5
149 1 0.19352 0.68805 0.5
132 1 0.278057 0.63856 0.5
151 1 0.251401 0.687738 0.5
153 1 0.300277 0.691062 0.5
134 1 0.325554 0.636407 0.5
155 1 0.350669 0.688389 0.5
136 1 0.376117 0.637009 0.5
138 1 0.424799 0.636711 0.5
157 1 0.401177 0.685484 0.5
140 1 0.471152 0.629448 0.5
159 1 0.452046 0.682722 0.5
142 1 0.0233042 0.737306 0.5
144 1 0.0747595 0.735862 0.5
146 1 0.121729 0.739653 0.5
148 1 0.17208 0.742685 0.5
150 1 0.223689 0.732772 0.5
152 1 0.272618 0.740449 0.5
154 1 0.32926 0.740606 0.5
156 1 0.380582 0.734936 0.5
158 1 0.43071 0.730757 0.5
160 1 0.481732 0.73056 0.5
190 1 0.220495 0.932824 0.5
162 1 0.0216933 0.836796 0.5
163 1 0.0459543 0.784098 0.5
164 1 0.0718323 0.834059 0.5
165 1 0.0943484 0.783908 0.5
166 1 0.120076 0.838764 0.5
167 1 0.145323 0.789088 0.5
168 1 0.169866 0.840222 0.5
169 1 0.196981 0.790802 0.5
170 1 0.220403 0.84085 0.5
171 1 0.246216 0.785488 0.5
172 1 0.268807 0.838445 0.5
173 1 0.30321 0.787574 0.5
174 1 0.320172 0.836376 0.5
175 1 0.356219 0.789306 0.5
176 1 0.375411 0.839321 0.5
177 1 0.40753 0.782153 0.5
178 1 0.430364 0.829998 0.5
179 1 0.456827 0.781887 0.5
180 1 0.477523 0.832574 0.5
209 1 0.396634 0.975969 0.5
183 1 0.0457955 0.889884 0.5
185 1 0.0938823 0.8862 0.5
187 1 0.143527 0.884903 0.5
189 1 0.192717 0.889295 0.5
191 1 0.246933 0.887902 0.5
193 1 0.296923 0.886595 0.5
195 1 0.349094 0.885671 0.5
197 1 0.406882 0.882378 0.5
199 1 0.453069 0.882609 0.5
182 1 0.0192016 0.937161 0.5
198 1 0.423864 0.932642 0.5
202 1 0.0382262 0.987749 0.5
184 1 0.0671111 0.941586 0.5
203 1 0.0864225 0.997878 0.5
186 1 0.117227 0.936197 0.5
211 2 0.5 9.79261e-05 0.5
212 2 0.525 0.049061 0.5
213 2 0.55 9.79261e-05 0.5
214 2 0.575 0.049061 0.5
215 2 0.6 9.79261e-05 0.5
216 2 0.625 0.049061 0.5
217 2 0.65 9.79261e-05 0.5
218 2 0.675 0.049061 0.5
219 2 0.7 9.79261e-05 0.5
220 2 0.725 0.049061 0.5
221 2 0.75 9.79261e-05 0.5
222 2 0.775 0.049061 0.5
223 2 0.8 9.79261e-05 0.5
224 2 0.825 0.049061 0.5
225 2 0.85 9.79261e-05 0.5
226 2 0.875 0.049061 0.5
227 2 0.9 9.79261e-05 0.5
228 2 0.925 0.049061 0.5
229 2 0.95 9.79261e-05 0.5
230 2 0.975 0.049061 0.5
231 2 0.5 0.098024 0.5
233 2 0.55 0.098024 0.5
235 2 0.6 0.098024 0.5
237 2 0.65 0.098024 0.5
239 2 0.7 0.098024 0.5
241 2 0.75 0.098024 0.5
243 2 0.8 0.098024 0.5
245 2 0.85 0.098024 0.5
247 2 0.9 0.098024 0.5
249 2 0.95 0.098024 0.5
232 1 0.527902 0.146843 0.5
251 1 0.503239 0.196708 0.5
253 1 0.552582 0.198712 0.5
234 1 0.578425 0.144967 0.5
255 1 0.602817 0.197171 0.5
236 1 0.625761 0.144461 0.5
238 1 0.674272 0.144517 0.5
257 1 0.650777 0.197029 0.5
240 1 0.725375 0.143589 0.5
259 1 0.699916 0.194244 0.5
242 1 0.772015 0.147823 0.5
261 1 0.747708 0.195995 0.5
263 1 0.796407 0.195482 0.5
244 1 0.821576 0.147645 0.5
265 1 0.844725 0.19585 0.5
246 1 0.870194 0.149896 0.5
248 1 0.92354 0.146667 0.5
267 1 0.895426 0.196732 0.5
250 1 0.973781 0.147147 0.5
269 1 0.948778 0.195009 0.5
252 1 0.523872 0.246482 0.5
254 1 0.576917 0.246612 0.5
256 1 0.625022 0.244077 0.5
258 1 0.67608 0.247105 0.5
260 1 0.723188 0.245249 0.5
262 1 0.770853 0.24528 0.5
264 1 0.819694 0.24663 0.5
266 1 0.874322 0.248217 0.5
268 1 0.925089 0.245451 0.5
270 1 0.974567 0.240753 0.5
271 1 0.502281 0.299356 0.5
272 1 0.526267 0.344091 0.5
273 1 0.552067 0.295332 0.5
274 1 0.576328 0.344716 0.5
275 1 0.602081 0.29613 0.5
276 1 0.627713 0.347994 0.5
277 1 0.652095 0.295904 0.5
278 1 0.674975 0.347165 0.5
279 1 0.699878 0.293615 0.5
280 1 0.725041 0.343302 0.5
281 1 0.749933 0.29552 0.5
282 1 0.778788 0.345889 0.5
283 1 0.797294 0.295896 0.5
284 1 0.824755 0.341322 0.5
285 1 0.845781 0.29165 0.5
286 1 0.876582 0.337112 0.5
287 1 0.905461 0.294598 0.5
288 1 0.930747 0.342049 0.5
289 1 0.953641 0.290308 0.5
290 1 0.977333 0.340922 0.5
323 1 0.801818 0.492941 0.5
293 1 0.551855 0.391153 0.5
295 1 0.604044 0.39549 0.5
297 1 0.65257 0.398969 0.5
299 1 0.705306 0.395523 0.5
301 1 0.753241 0.400311 0.5
303 1 0.798196 0.397598 0.5
305 1 0.847565 0.390609 0.5
307 1 0.898521 0.38469 0.5
309 1 0.953587 0.389756 0.5
292 1 0.526687 0.437907 0.5
294 1 0.57593 0.440815 0.5
296 1 0.624644 0.445446 0.5
298 1 0.677168 0.443098 0.5
300 1 0.72814 0.44629 0.5
302 1 0.77999 0.445961 0.5
304 1 0.827801 0.443868 0.5
306 1 0.873867 0.436387 0.5
308 1 0.925708 0.438333 0.5
310 1 0.977005 0.440184 0.5
317 1 0.651694 0.491269 0.5
327 1 0.90212 0.485541 0.5
329 1 0.950175 0.485097 0.5
325 1 0.851831 0.489145 0.5
313 1 0.548138 0.488767 0.5
315 1 0.600272 0.490589 0.5
321 1 0.751026 0.494715 0.5
319 1 0.701778 0.490913 0.5
311 1 0.500343 0.484032 0.5
201 1 0.990765 0.983123 0.5
312 1 0.520129 0.533551 0.5
181 1 0.994864 0.883311 0.5
314 1 0.571028 0.537283 0.5
418 1 0.847788 0.999943 0.5
316 1 0.626537 0.54371 0.5
417 1 0.798254 0.978324 0.5
318 1 0.676731 0.536727 0.5
416 1 0.751367 0.983118 0.5
320 1 0.725472 0.537252 0.5
121 1 0.999596 0.586265 0.5
322 1 0.777139 0.539588 0.5
419 1 0.896094 0.996539 0.5
324 1 0.826084 0.540053 0.5
408 1 0.917514 0.937773 0.5
326 1 0.876913 0.538139 0.5
161 1 0.99755 0.786446 0.5
328 1 0.927072 0.5336 0.5
406 1 0.870072 0.949273 0.5
330 1 0.977431 0.534811 0.5
404 1 0.823819 0.927494 0.5
333 1 0.542671 0.580757 0.5
335 1 0.596485 0.585378 0.5
337 1 0.650727 0.588985 0.5
339 1 0.701036 0.586442 0.5
341 1 0.752007 0.585992 0.5
343 1 0.80086 0.5864 0.5
345 1 0.852143 0.588828 0.5
347 1 0.90013 0.586554 0.5
349 1 0.95117 0.583489 0.5
332 1 0.524983 0.634193 0.5
420 1 0.942899 0.984474 0.5
353 1 0.55169 0.680222 0.5
334 1 0.573656 0.632541 0.5
355 1 0.600571 0.680924 0.5
336 1 0.620366 0.634006 0.5
338 1 0.679232 0.637607 0.5
357 1 0.650738 0.680475 0.5
340 1 0.727698 0.637018 0.5
359 1 0.704536 0.683446 0.5
342 1 0.777859 0.638787 0.5
361 1 0.753407 0.684608 0.5
363 1 0.801845 0.685222 0.5
344 1 0.825287 0.634353 0.5
365 1 0.850839 0.683225 0.5
346 1 0.873453 0.634997 0.5
348 1 0.925462 0.635173 0.5
367 1 0.900751 0.682441 0.5
350 1 0.974809 0.633793 0.5
369 1 0.949587 0.683314 0.5
352 1 0.529902 0.734056 0.5
354 1 0.577796 0.731471 0.5
356 1 0.625177 0.72982 0.5
358 1 0.674247 0.728222 0.5
360 1 0.730485 0.732712 0.5
362 1 0.776808 0.730847 0.5
364 1 0.826716 0.7356 0.5
366 1 0.873563 0.736558 0.5
368 1 0.922738 0.730797 0.5
370 1 0.97035 0.734977 0.5
371 1 0.504799 0.780779 0.5
372 1 0.527764 0.828007 0.5
373 1 0.553519 0.781489 0.5
374 1 0.576217 0.830745 0.5
375 1 0.601308 0.7805 0.5
376 1 0.624806 0.82746 0.5
377 1 0.650783 0.779927 0.5
378 1 0.678986 0.827386 0.5
379 1 0.700968 0.781596 0.5
380 1 0.725887 0.827629 0.5
381 1 0.752026 0.780104 0.5
382 1 0.775172 0.83165 0.5
383 1 0.801604 0.78619 0.5
384 1 0.825647 0.830811 0.5
385 1 0.851596 0.783484 0.5
386 1 0.873963 0.83362 0.5
387 1 0.90079 0.782143 0.5
388 1 0.922062 0.831491 0.5
389 1 0.949234 0.782145 0.5
390 1 0.970581 0.834651 0.5
391 1 0.502101 0.88066 0.5
393 1 0.552118 0.877129 0.5
395 1 0.603281 0.878628 0.5
397 1 0.652629 0.880106 0.5
399 1 0.701236 0.884695 0.5
401 1 0.750575 0.879811 0.5
403 1 0.801716 0.879914 0.5
405 1 0.850506 0.882437 0.5
407 1 0.897694 0.886692 0.5
409 1 0.946379 0.881884 0.5
392 1 0.532405 0.9418 0.5
410 1 0.965856 0.933539 0.5
412 1 0.558842 0.989956 0.5
394 1 0.578316 0.923404 0.5
413 1 0.602051 0.970274 0.5
396 1 0.628712 0.927219 0.5
398 1 0.67858 0.935035 0.5
414 1 0.648655 0.980582 0.5
400 1 0.72818 0.934621 0.5
415 1 0.702172 0.981079 0.5
402 1 0.774786 0.928947 0.5
351 1 0.501917 0.68137 0.5
411 1 0.50235 0.984578 0.5
141 1 0.997978 0.686568 0.5
ITEM: TIMESTEP
500
ITEM: NUMBER OF ATOMS
420
ITEM: BOX BOUNDS pp ss pp
0.0000000000000000e+00 2.2653923264628304e+01
-1.9618873042551413e-03 1.9833128158234622e+01
-2.8317404080785380e-01 2.8317404080785380e-01
ITEM: ATOMS id type xs ys zs
1 2 0 9.89099e-05 0.5
2 2 0.025 0.0495539 0.5
3 2 0.05 9.89099e-05 0.5
4 2 0.075 0.0495539 0.5
5 2 0.1 9.89099e-05 0.5
6 2 0.125 0.0495539 0.5
7 2 0.15 9.89099e-05 0.5
8 2 0.175 0.0495539 0.5
9 2 0.2 9.89099e-05 0.5
10 2 0.225 0.0495539 0.5
11 2 0.25 9.89099e-05 0.5
12 2 0.275 0.0495539 0.5
13 2 0.3 9.89099e-05 0.5
14 2 0.325 0.0495539 0.5
15 2 0.35 9.89099e-05 0.5
16 2 0.375 0.0495539 0.5
17 2 0.4 9.89099e-05 0.5
18 2 0.425 0.0495539 0.5
19 2 0.45 9.89099e-05 0.5
20 2 0.475 0.0495539 0.5
21 2 0 0.0990088 0.5
23 2 0.05 0.0990088 0.5
25 2 0.1 0.0990088 0.5
27 2 0.15 0.0990088 0.5
29 2 0.2 0.0990088 0.5
31 2 0.25 0.0990088 0.5
33 2 0.3 0.0990088 0.5
35 2 0.35 0.0990088 0.5
37 2 0.4 0.0990088 0.5
39 2 0.45 0.0990088 0.5
22 1 0.0247147 0.151152 0.5
100 1 0.47544 0.447349 0.5
43 1 0.0528085 0.20081 0.5
24 1 0.0771699 0.148374 0.5
45 1 0.100296 0.196737 0.5
26 1 0.123686 0.147369 0.5
28 1 0.172317 0.145202 0.5
47 1 0.149743 0.198099 0.5
30 1 0.22725 0.146492 0.5
49 1 0.198368 0.191338 0.5
32 1 0.275545 0.147796 0.5
51 1 0.249773 0.197138 0.5
53 1 0.297906 0.198097 0.5
34 1 0.325246 0.145602 0.5
55 1 0.347736 0.198521 0.5
36 1 0.373477 0.150864 0.5
38 1 0.423614 0.148929 0.5
57 1 0.396617 0.199113 0.5
40 1 0.472311 0.145997 0.5
59 1 0.447213 0.198467 0.5
42 1 0.024597 0.246981 0.5
44 1 0.0763343 0.251296 0.5
46 1 0.127545 0.245126 0.5
48 1 0.176034 0.248975 0.5
50 1 0.224183 0.244118 0.5
52 1 0.275457 0.249556 0.5
54 1 0.322343 0.246633 0.5
56 1 0.372778 0.24872 0.5
58 1 0.422568 0.24613 0.5
60 1 0.470339 0.24671 0.5
98 1 0.426907 0.443948 0.5
62 1 0.0248089 0.348084 0.5
63 1 0.0496904 0.30159 0.5
64 1 0.0747877 0.346152 0.5
65 1 0.098851 0.298308 0.5
66 1 0.123968 0.34858 0.5
67 1 0.150598 0.29778 0.5
68 1 0.173087 0.344025 0.5
69 1 0.200566 0.297941 0.5
70 1 0.226726 0.34736 0.5
71 1 0.249963 0.297215 0.5
72 1 0.273372 0.347987 0.5
73 1 0.296992 0.299378 0.5
74 1 0.321134 0.348452 0.5
75 1 0.347509 0.296157 0.5
76 1 0.373683 0.345668 0.5
77 1 0.401747 0.298655 0.5
78 1 0.423568 0.349279 0.5
79 1 0.450606 0.297791 0.5
80 1 0.476122 0.347004 0.5
96 1 0.378031 0.444952 0.5
83 1 0.0507261 0.394244 0.5
85 1 0.0991542 0.396152 0.5
87 1 0.150637 0.396551 0.5
89 1 0.199377 0.396874 0.5
91 1 0.252419 0.396087 0.5
93 1 0.301399 0.399195 0.5
95 1 0.352689 0.394175 0.5
97 1 0.400365 0.396067 0.5
99 1 0.451019 0.398092 0.5
82 1 0.0270881 0.445367 0.5
84 1 0.0760328 0.443817 0.5
86 1 0.122272 0.446893 0.5
88 1 0.172191 0.444136 0.5
90 1 0.22419 0.44536 0.5
92 1 0.276682 0.445711 0.5
94 1 0.328452 0.443336 0.5
111 1 0.248432 0.493471 0.5
103 1 0.0530178 0.492199 0.5
105 1 0.0998781 0.497383 0.5
107 1 0.150531 0.494994 0.5
109 1 0.200575 0.494964 0.5
113 1 0.302371 0.494394 0.5
115 1 0.351875 0.492988 0.5
117 1 0.402634 0.495598 0.5
291 1 0.498563 0.395132 0.5
81 1 0.00287064 0.398293 0.5
101 1 0.0029256 0.497966 0.5
251 1 0.496615 0.197554 0.5
311 1 0.499226 0.496085 0.5
41 1 0.00204421 0.198975 0.5
188 1 0.173239 0.948861 0.5
102 1 0.0255932 0.544647 0.5
204 1 0.149829 0.998141 0.5
104 1 0.0754498 0.546571 0.5
196 1 0.374549 0.941269 0.5
106 1 0.124577 0.545502 0.5
208 1 0.347999 0.994279 0.5
108 1 0.175081 0.544439 0.5
194 1 0.325799 0.943122 0.5
110 1 0.223569 0.547368 0.5
141 1 0.00289996 0.697376 0.5
112 1 0.275818 0.54008 0.5
207 1 0.298051 0.992536 0.5
114 1 0.327088 0.546074 0.5
206 1 0.246732 0.995496 0.5
116 1 0.375304 0.543344 0.5
192 1 0.276818 0.942218 0.5
118 1 0.427534 0.547539 0.5
205 1 0.19788 0.998818 0.5
120 1 0.478747 0.548654 0.5
210 1 0.449465 0.987419 0.5
123 1 0.0516004 0.593707 0.5
125 1 0.102865 0.594716 0.5
127 1 0.15028 0.593798 0.5
129 1 0.198499 0.595163 0.5
131 1 0.251713 0.593933 0.5
133 1 0.300891 0.59162 0.5
135 1 0.348729 0.596914 0.5
137 1 0.40207 0.594889 0.5
139 1 0.449605 0.597398 0.5
122 1 0.026732 0.650489 0.5
200 1 0.474034 0.940219 0.5
143 1 0.054026 0.697819 0.5
124 1 0.0797645 0.642208 0.5
145 1 0.100208 0.696232 0.5
126 1 0.129858 0.646113 0.5
128 1 0.176465 0.644918 0.5
147 1 0.151531 0.698536 0.5
130 1 0.223783 0.645193 0.5
149 1 0.199462 0.694158 0.5
132 1 0.274725 0.642788 0.5
151 1 0.249014 0.692596 0.5
153 1 0.29983 0.696342 0.5
134 1 0.322772 0.647095 0.5
155 1 0.349555 0.696115 0.5
136 1 0.373339 0.643151 0.5
138 1 0.4245 0.645383 0.5
157 1 0.398209 0.697522 0.5
140 1 0.475348 0.646006 0.5
159 1 0.448375 0.699101 0.5
142 1 0.0259277 0.746291 0.5
144 1 0.0753312 0.747621 0.5
146 1 0.126997 0.746698 0.5
148 1 0.17483 0.748013 0.5
150 1 0.224677 0.747514 0.5
152 1 0.273269 0.742636 0.5
154 1 0.324444 0.749771 0.5
156 1 0.372117 0.746252 0.5
158 1 0.422043 0.746026 0.5
160 1 0.472681 0.749309 0.5
190 1 0.226798 0.943467 0.5
162 1 0.0226467 0.846336 0.5
163 1 0.050317 0.793842 0.5
164 1 0.0726134 0.845643 0.5
165 1 0.101552 0.795851 0.5
166 1 0.124101 0.843459 0.5
167 1 0.149507 0.799081 0.5
168 1 0.173929 0.848236 0.5
169 1 0.19897 0.796433 0.5
170 1 0.224008 0.849064 0.5
171 1 0.247042 0.797112 0.5
172 1 0.273584 0.846133 0.5
173 1 0.299321 0.797916 0.5
174 1 0.322695 0.845443 0.5
175 1 0.349654 0.797158 0.5
176 1 0.37236 0.843825 0.5
177 1 0.39957 0.796811 0.5
178 1 0.422431 0.842793 0.5
179 1 0.44691 0.796637 0.5
180 1 0.470668 0.845501 0.5
209 1 0.399737 0.992034 0.5
183 1 0.048701 0.899627 0.5
185 1 0.0992149 0.895499 0.5
187 1 0.148997 0.896581 0.5
189 1 0.19903 0.900142 0.5
191 1 0.249494 0.897605 0.5
193 1 0.300858 0.896037 0.5
195 1 0.349086 0.895235 0.5
197 1 0.398345 0.891757 0.5
199 1 0.446786 0.893526 0.5
182 1 0.0214994 0.945426 0.5
198 1 0.421958 0.941727 0.5
202 1 0.0457282 0.993196 0.5
184 1 0.0741765 0.947193 0.5
203 1 0.0987864 0.998591 0.5
186 1 0.125223 0.950561 0.5
391 1 0.496459 0.890885 0.5
371 1 0.495971 0.796404 0.5
121 1 0.00337473 0.59855 0.5
351 1 0.498534 0.695255 0.5
411 1 0.497648 0.986051 0.5
119 1 0.452021 0.501698 0.5
211 2 0.5 9.89099e-05 0.5
212 2 0.525 0.0495539 0.5
213 2 0.55 9.89099e-05 0.5
214 2 0.575 0.0495539 0.5
215 2 0.6 9.89099e-05 0.5
216 2 0.625 0.0495539 0.5
217 2 0.65 9.89099e-05 0.5
218 2 0.675 0.0495539 0.5
219 2 0.7 9.89099e-05 0.5
220 2 0.725 0.0495539 0.5
221 2 0.75 9.89099e-05 0.5
222 2 0.775 0.0495539 0.5
223 2 0.8 9.89099e-05 0.5
224 2 0.825 0.0495539 0.5
225 2 0.85 9.89099e-05 0.5
226 2 0.875 0.0495539 0.5
227 2 0.9 9.89099e-05 0.5
228 2 0.925 0.0495539 0.5
229 2 0.95 9.89099e-05 0.5
230 2 0.975 0.0495539 0.5
231 2 0.5 0.0990088 0.5
233 2 0.55 0.0990088 0.5
235 2 0.6 0.0990088 0.5
237 2 0.65 0.0990088 0.5
239 2 0.7 0.0990088 0.5
241 2 0.75 0.0990088 0.5
243 2 0.8 0.0990088 0.5
245 2 0.85 0.0990088 0.5
247 2 0.9 0.0990088 0.5
249 2 0.95 0.0990088 0.5
232 1 0.523349 0.146389 0.5
271 1 0.500341 0.293705 0.5
253 1 0.548782 0.197492 0.5
234 1 0.574639 0.148824 0.5
255 1 0.602886 0.195702 0.5
236 1 0.62587 0.147364 0.5
238 1 0.676894 0.146873 0.5
257 1 0.652817 0.195067 0.5
240 1 0.728643 0.147403 0.5
259 1 0.704598 0.198278 0.5
242 1 0.777491 0.146425 0.5
261 1 0.753986 0.196347 0.5
263 1 0.801485 0.195403 0.5
244 1 0.825785 0.147502 0.5
265 1 0.852709 0.195556 0.5
246 1 0.874306 0.146956 0.5
248 1 0.925272 0.148281 0.5
267 1 0.901957 0.197784 0.5
250 1 0.976053 0.148954 0.5
269 1 0.950928 0.197362 0.5
252 1 0.525201 0.244631 0.5
254 1 0.575423 0.242801 0.5
256 1 0.623961 0.243513 0.5
258 1 0.675645 0.242681 0.5
260 1 0.728806 0.244734 0.5
262 1 0.779133 0.244369 0.5
264 1 0.828445 0.243702 0.5
266 1 0.876221 0.247449 0.5
268 1 0.924309 0.247355 0.5
270 1 0.976734 0.245625 0.5
319 1 0.700265 0.491753 0.5
272 1 0.524961 0.345622 0.5
273 1 0.548563 0.295603 0.5
274 1 0.574518 0.344478 0.5
275 1 0.596471 0.292993 0.5
276 1 0.623308 0.343133 0.5
277 1 0.648916 0.297207 0.5
278 1 0.672459 0.347951 0.5
279 1 0.697869 0.292196 0.5
280 1 0.725995 0.3439 0.5
281 1 0.75482 0.2918 0.5
282 1 0.775743 0.345345 0.5
283 1 0.802271 0.294916 0.5
284 1 0.827372 0.343448 0.5
285 1 0.851493 0.293577 0.5
286 1 0.877269 0.344712 0.5
287 1 0.900558 0.297144 0.5
288 1 0.924846 0.346558 0.5
289 1 0.95105 0.297399 0.5
290 1 0.977763 0.351277 0.5
323 1 0.801321 0.494326 0.5
293 1 0.547492 0.393837 0.5
295 1 0.596893 0.393968 0.5
297 1 0.643809 0.391724 0.5
299 1 0.699533 0.389438 0.5
301 1 0.748649 0.391816 0.5
303 1 0.802843 0.393991 0.5
305 1 0.85343 0.394911 0.5
307 1 0.89964 0.393686 0.5
309 1 0.952299 0.399623 0.5
292 1 0.524257 0.443093 0.5
294 1 0.573266 0.444681 0.5