ITEM: TIMESTEP
0
ITEM: NUMBER OF ATOMS
420
ITEM: BOX BOUNDS pp ss pp
0.0000000000000000e+00 2.2653923264628304e+01
-1.9618873042551413e-03 1.9620834929855668e+01
-2.8317404080785380e-01 2.8317404080785380e-01
ITEM: ATOMS id type xs ys zs
1 2 0 9.998e-05 0.5
2 2 0.025 0.05009 0.5
3 2 0.05 9.998e-05 0.5
4 2 0.075 0.05009 0.5
5 2 0.1 9.998e-05 0.5
6 2 0.125 0.05009 0.5
7 2 0.15 9.998e-05 0.5
8 2 0.175 0.05009 0.5
9 2 0.2 9.998e-05 0.5
10 2 0.225 0.05009 0.5
11 2 0.25 9.998e-05 0.5
12 2 0.275 0.05009 0.5
13 2 0.3 9.998e-05 0.5
14 2 0.325 0.05009 0.5
15 2 0.35 9.998e-05 0.5
16 2 0.375 0.05009 0.5
17 2 0.4 9.998e-05 0.5
18 2 0.425 0.05009 0.5
19 2 0.45 9.998e-05 0.5
20 2 0.475 0.05009 0.5
21 2 0 0.10008 0.5
23 2 0.05 0.10008 0.5
25 2 0.1 0.10008 0.5
27 2 0.15 0.10008 0.5
29 2 0.2 0.10008 0.5
31 2 0.25 0.10008 0.5
33 2 0.3 0.10008 0.5
35 2 0.35 0.10008 0.5
37 2 0.4 0.10008 0.5
39 2 0.45 0.10008 0.5
22 1 0.025 0.15007 0.5
41 1 0 0.20006 0.5
43 1 0.05 0.20006 0.5
24 1 0.075 0.15007 0.5
45 1 0.1 0.20006 0.5
26 1 0.125 0.15007 0.5
28 1 0.175 0.15007 0.5
47 1 0.15 0.20006 0.5
30 1 0.225 0.15007 0.5
49 1 0.2 0.20006 0.5
32 1 0.275 0.15007 0.5
51 1 0.25 0.20006 0.5
53 1 0.3 0.20006 0.5
34 1 0.325 0.15007 0.5
55 1 0.35 0.20006 0.5
36 1 0.375 0.15007 0.5
38 1 0.425 0.15007 0.5
57 1 0.4 0.20006 0.5
40 1 0.475 0.15007 0.5
59 1 0.45 0.20006 0.5
42 1 0.025 0.25005 0.5
44 1 0.075 0.25005 0.5
46 1 0.125 0.25005 0.5
48 1 0.175 0.25005 0.5
50 1 0.225 0.25005 0.5
52 1 0.275 0.25005 0.5
54 1 0.325 0.25005 0.5
56 1 0.375 0.25005 0.5
58 1 0.425 0.25005 0.5
60 1 0.475 0.25005 0.5
61 1 0 0.30004 0.5
62 1 0.025 0.35003 0.5
63 1 0.05 0.30004 0.5
64 1 0.075 0.35003 0.5
65 1 0.1 0.30004 0.5
66 1 0.125 0.35003 0.5
67 1 0.15 0.30004 0.5
68 1 0.175 0.35003 0.5
69 1 0.2 0.30004 0.5
70 1 0.225 0.35003 0.5
71 1 0.25 0.30004 0.5
72 1 0.275 0.35003 0.5
73 1 0.3 0.30004 0.5
74 1 0.325 0.35003 0.5
75 1 0.35 0.30004 0.5
76 1 0.375 0.35003 0.5
77 1 0.4 0.30004 0.5
78 1 0.425 0.35003 0.5
79 1 0.45 0.30004 0.5
80 1 0.475 0.35003 0.5
81 1 0 0.40002 0.5
83 1 0.05 0.40002 0.5
85 1 0.1 0.40002 0.5
87 1 0.15 0.40002 0.5
89 1 0.2 0.40002 0.5
91 1 0.25 0.40002 0.5
93 1 0.3 0.40002 0.5
95 1 0.35 0.40002 0.5
97 1 0.4 0.40002 0.5
99 1 0.45 0.40002 0.5
82 1 0.025 0.45001 0.5
84 1 0.075 0.45001 0.5
86 1 0.125 0.45001 0.5
88 1 0.175 0.45001 0.5
90 1 0.225 0.45001 0.5
92 1 0.275 0.45001 0.5
94 1 0.325 0.45001 0.5
96 1 0.375 0.45001 0.5
98 1 0.425 0.45001 0.5
100 1 0.475 0.45001 0.5
101 1 0 0.5 0.5
102 1 0.025 0.54999 0.5
103 1 0.05 0.5 0.5
104 1 0.075 0.54999 0.5
105 1 0.1 0.5 0.5
106 1 0.125 0.54999 0.5
107 1 0.15 0.5 0.5
108 1 0.175 0.54999 0.5
109 1 0.2 0.5 0.5
110 1 0.225 0.54999 0.5
111 1 0.25 0.5 0.5
112 1 0.275 0.54999 0.5
113 1 0.3 0.5 0.5
114 1 0.325 0.54999 0.5
115 1 0.35 0.5 0.5
116 1 0.375 0.54999 0.5
117 1 0.4 0.5 0.5
118 1 0.425 0.54999 0.5
119 1 0.45 0.5 0.5
120 1 0.475 0.54999 0.5
121 1 0 0.59998 0.5
123 1 0.05 0.59998 0.5
125 1 0.1 0.59998 0.5
127 1 0.15 0.59998 0.5
129 1 0.2 0.59998 0.5
131 1 0.25 0.59998 0.5
133 1 0.3 0.59998 0.5
135 1 0.35 0.59998 0.5
137 1 0.4 0.59998 0.5
139 1 0.45 0.59998 0.5
122 1 0.025 0.64997 0.5
141 1 0 0.69996 0.5
143 1 0.05 0.69996 0.5
124 1 0.075 0.64997 0.5
145 1 0.1 0.69996 0.5
126 1 0.125 0.64997 0.5
128 1 0.175 0.64997 0.5
147 1 0.15 0.69996 0.5
130 1 0.225 0.64997 0.5
149 1 0.2 0.69996 0.5
132 1 0.275 0.64997 0.5
151 1 0.25 0.69996 0.5
153 1 0.3 0.69996 0.5
134 1 0.325 0.64997 0.5
155 1 0.35 0.69996 0.5
136 1 0.375 0.64997 0.5
138 1 0.425 0.64997 0.5
157 1 0.4 0.69996 0.5
140 1 0.475 0.64997 0.5
159 1 0.45 0.69996 0.5
142 1 0.025 0.74995 0.5
144 1 0.075 0.74995 0.5
146 1 0.125 0.74995 0.5
148 1 0.175 0.74995 0.5
150 1 0.225 0.74995 0.5
152 1 0.275 0.74995 0.5
154 1 0.325 0.74995 0.5
156 1 0.375 0.74995 0.5
158 1 0.425 0.74995 0.5
160 1 0.475 0.74995 0.5
161 1 0 0.79994 0.5
162 1 0.025 0.84993 0.5
163 1 0.05 0.79994 0.5
164 1 0.075 0.84993 0.5
165 1 0.1 0.79994 0.5
166 1 0.125 0.84993 0.5
167 1 0.15 0.79994 0.5
168 1 0.175 0.84993 0.5
169 1 0.2 0.79994 0.5
170 1 0.225 0.84993 0.5
171 1 0.25 0.79994 0.5
172 1 0.275 0.84993 0.5
173 1 0.3 0.79994 0.5
174 1 0.325 0.84993 0.5
175 1 0.35 0.79994 0.5
176 1 0.375 0.84993 0.5
177 1 0.4 0.79994 0.5
178 1 0.425 0.84993 0.5
179 1 0.45 0.79994 0.5
180 1 0.475 0.84993 0.5
181 1 0 0.89992 0.5
183 1 0.05 0.89992 0.5
185 1 0.1 0.89992 0.5
187 1 0.15 0.89992 0.5
189 1 0.2 0.89992 0.5
191 1 0.25 0.89992 0.5
193 1 0.3 0.89992 0.5
195 1 0.35 0.89992 0.5
197 1 0.4 0.89992 0.5
199 1 0.45 0.89992 0.5
182 1 0.025 0.94991 0.5
201 1 0 0.9999 0.5
202 1 0.05 0.9999 0.5
184 1 0.075 0.94991 0.5
203 1 0.1 0.9999 0.5
186 1 0.125 0.94991 0.5
188 1 0.175 0.94991 0.5
204 1 0.15 0.9999 0.5
190 1 0.225 0.94991 0.5
205 1 0.2 0.9999 0.5
192 1 0.275 0.94991 0.5
206 1 0.25 0.9999 0.5
207 1 0.3 0.9999 0.5
194 1 0.325 0.94991 0.5
208 1 0.35 0.9999 0.5
196 1 0.375 0.94991 0.5
198 1 0.425 0.94991 0.5
209 1 0.4 0.9999 0.5
200 1 0.475 0.94991 0.5
210 1 0.45 0.9999 0.5
211 2 0.5 9.998e-05 0.5
212 2 0.525 0.05009 0.5
213 2 0.55 9.998e-05 0.5
214 2 0.575 0.05009 0.5
215 2 0.6 9.998e-05 0.5
216 2 0.625 0.05009 0.5
217 2 0.65 9.998e-05 0.5
218 2 0.675 0.05009 0.5
219 2 0.7 9.998e-05 0.5
220 2 0.725 0.05009 0.5
221 2 0.75 9.998e-05 0.5
222 2 0.775 0.05009 0.5
223 2 0.8 9.998e-05 0.5
224 2 0.825 0.05009 0.5
225 2 0.85 9.998e-05 0.5
226 2 0.875 0.05009 0.5
227 2 0.9 9.998e-05 0.5
228 2 0.925 0.05009 0.5
229 2 0.95 9.998e-05 0.5
230 2 0.975 0.05009 0.5
231 2 0.5 0.10008 0.5
233 2 0.55 0.10008 0.5
235 2 0.6 0.10008 0.5
237 2 0.65 0.10008 0.5
239 2 0.7 0.10008 0.5
241 2 0.75 0.10008 0.5
243 2 0.8 0.10008 0.5
245 2 0.85 0.10008 0.5
247 2 0.9 0.10008 0.5
249 2 0.95 0.10008 0.5
232 1 0.525 0.15007 0.5
251 1 0.5 0.20006 0.5
253 1 0.55 0.20006 0.5
234 1 0.575 0.15007 0.5
255 1 0.6 0.20006 0.5
236 1 0.625 0.15007 0.5
238 1 0.675 0.15007 0.5
257 1 0.65 0.20006 0.5
240 1 0.725 0.15007 0.5
259 1 0.7 0.20006 0.5
242 1 0.775 0.15007 0.5
261 1 0.75 0.20006 0.5
263 1 0.8 0.20006 0.5
244 1 0.825 0.15007 0.5
265 1 0.85 0.20006 0.5
246 1 0.875 0.15007 0.5
248 1 0.925 0.15007 0.5
267 1 0.9 0.20006 0.5
250 1 0.975 0.15007 0.5
269 1 0.95 0.20006 0.5
252 1 0.525 0.25005 0.5
254 1 0.575 0.25005 0.5
256 1 0.625 0.25005 0.5
258 1 0.675 0.25005 0.5
260 1 0.725 0.25005 0.5
262 1 0.775 0.25005 0.5
264 1 0.825 0.25005 0.5
266 1 0.875 0.25005 0.5
268 1 0.925 0.25005 0.5
270 1 0.975 0.25005 0.5
271 1 0.5 0.30004 0.5
272 1 0.525 0.35003 0.5
273 1 0.55 0.30004 0.5
274 1 0.575 0.35003 0.5
275 1 0.6 0.30004 0.5
276 1 0.625 0.35003 0.5
277 1 0.65 0.30004 0.5
278 1 0.675 0.35003 0.5
279 1 0.7 0.30004 0.5
280 1 0.725 0.35003 0.5
281 1 0.75 0.30004 0.5
282 1 0.775 0.35003 0.5
283 1 0.8 0.30004 0.5
284 1 0.825 0.35003 0.5
285 1 0.85 0.30004 0.5
286 1 0.875 0.35003 0.5
287 1 0.9 0.30004 0.5
288 1 0.925 0.35003 0.5
289 1 0.95 0.30004 0.5
290 1 0.975 0.35003 0.5
291 1 0.5 0.40002 0.5
293 1 0.55 0.40002 0.5
295 1 0.6 0.40002 0.5
297 1 0.65 0.40002 0.5
299 1 0.7 0.40002 0.5
301 1 0.75 0.40002 0.5
303 1 0.8 0.40002 0.5
305 1 0.85 0.40002 0.5
307 1 0.9 0.40002 0.5
309 1 0.95 0.40002 0.5
292 1 0.525 0.45001 0.5
294 1 0.575 0.45001 0.5
296 1 0.625 0.45001 0.5
298 1 0.675 0.45001 0.5
300 1 0.725 0.45001 0.5
302 1 0.775 0.45001 0.5
304 1 0.825 0.45001 0.5
306 1 0.875 0.45001 0.5
308 1 0.925 0.45001 0.5
310 1 0.975 0.45001 0.5
311 1 0.5 0.5 0.5
312 1 0.525 0.54999 0.5
313 1 0.55 0.5 0.5
314 1 0.575 0.54999 0.5
315 1 0.6 0.5 0.5
316 1 0.625 0.54999 0.5
317 1 0.65 0.5 0.5
318 1 0.675 0.54999 0.5
319 1 0.7 0.5 0.5
320 1 0.725 0.54999 0.5
321 1 0.75 0.5 0.5
322 1 0.775 0.54999 0.5
323 1 0.8 0.5 0.5
324 1 0.825 0.54999 0.5
325 1 0.85 0.5 0.5
326 1 0.875 0.54999 0.5
327 1 0.9 0.5 0.5
328 1 0.925 0.54999 0.5
329 1 0.95 0.5 0.5
330 1 0.975 0.54999 0.5
331 1 0.5 0.59998 0.5
333 1 0.55 0.59998 0.5
335 1 0.6 0.59998 0.5
337 1 0.65 0.59998 0.5
339 1 0.7 0.59998 0.5
341 1 0.75 0.59998 0.5
343 1 0.8 0.59998 0.5
345 1 0.85 0.59998 0.5
347 1 0.9 0.59998 0.5
349 1 0.95 0.59998 0.5
332 1 0.525 0.64997 0.5
351 1 0.5 0.69996 0.5
353 1 0.55 0.69996 0.5
334 1 0.575 0.64997 0.5
355 1 0.6 0.69996 0.5
336 1 0.625 0.64997 0.5
338 1 0.675 0.64997 0.5
357 1 0.65 0.69996 0.5
340 1 0.725 0.64997 0.5
359 1 0.7 0.69996 0.5
342 1 0.775 0.64997 0.5
361 1 0.75 0.69996 0.5
363 1 0.8 0.69996 0.5
344 1 0.825 0.64997 0.5
365 1 0.85 0.69996 0.5
346 1 0.875 0.64997 0.5
348 1 0.925 0.64997 0.5
367 1 0.9 0.69996 0.5
350 1 0.975 0.64997 0.5
369 1 0.95 0.69996 0.5
352 1 0.525 0.74995 0.5
354 1 0.575 0.74995 0.5
356 1 0.625 0.74995 0.5
358 1 0.675 0.74995 0.5
360 1 0.725 0.74995 0.5
362 1 0.775 0.74995 0.5
364 1 0.825 0.74995 0.5
366 1 0.875 0.74995 0.5
368 1 0.925 0.74995 0.5
370 1 0.975 0.74995 0.5
371 1 0.5 0.79994 0.5
372 1 0.525 0.84993 0.5
373 1 0.55 0.79994 0.5
374 1 0.575 0.84993 0.5
375 1 0.6 0.79994 0.5
376 1 0.625 0.84993 0.5
377 1 0.65 0.79994 0.5
378 1 0.675 0.84993 0.5
379 1 0.7 0.79994 0.5
380 1 0.725 0.84993 0.5
381 1 0.75 0.79994 0.5
382 1 0.775 0.84993 0.5
383 1 0.8 0.79994 0.5
384 1 0.825 0.84993 0.5
385 1 0.85 0.79994 0.5
386 1 0.875 0.84993 0.5
387 1 0.9 0.79994 0.5
388 1 0.925 0.84993 0.5
389 1 0.95 0.79994 0.5
390 1 0.975 0.84993 0.5
391 1 0.5 0.89992 0.5
393 1 0.55 0.89992 0.5
395 1 0.6 0.89992 0.5
397 1 0.65 0.89992 0.5
399 1 0.7 0.89992 0.5
401 1 0.75 0.89992 0.5
403 1 0.8 0.89992 0.5
405 1 0.85 0.89992 0.5
407 1 0.9 0.89992 0.5
409 1 0.95 0.89992 0.5
392 1 0.525 0.94991 0.5
411 1 0.5 0.9999 0.5
412 1 0.55 0.9999 0.5
394 1 0.575 0.94991 0.5
413 1 0.6 0.9999 0.5
396 1 0.625 0.94991 0.5
398 1 0.675 0.94991 0.5
414 1 0.65 0.9999 0.5
400 1 0.725 0.94991 0.5
415 1 0.7 0.9999 0.5
402 1 0.775 0.94991 0.5
416 1 0.75 0.9999 0.5
417 1 0.8 0.9999 0.5
404 1 0.825 0.94991 0.5
418 1 0.85 0.9999 0.5
406 1 0.875 0.94991 0.5
408 1 0.925 0.94991 0.5
419 1 0.9 0.9999 0.5
410 1 0.975 0.94991 0.5
420 1 0.95 0.9999 0.5
ITEM: TIMESTEP
250
ITEM: NUMBER OF ATOMS
420
ITEM: BOX BOUNDS pp ss pp
0.0000000000000000e+00 2.2653923264628304e+01
-1.9618873042551413e-03 1.9899989680993500e+01
-2.8317404080785380e-01 2.8317404080785380e-01
ITEM: ATOMS id type xs ys zs
1 2 0 9.85776e-05 0.5
2 2 0.025 0.0493874 0.5
3 2 0.05 9.85776e-05 0.5
4 2 0.075 0.0493874 0.5
5 2 0.1 9.85776e-05 0.5
6 2 0.125 0.0493874 0.5
7 2 0.15 9.85776e-05 0.5
8 2 0.175 0.0493874 0.5
9 2 0.2 9.85776e-05 0.5
10 2 0.225 0.0493874 0.5
11 2 0.25 9.85776e-05 0.5
12 2 0.275 0.0493874 0.5
13 2 0.3 9.85776e-05 0.5
14 2 0.325 0.0493874 0.5
15 2 0.35 9.85776e-05 0.5
16 2 0.375 0.0493874 0.5
17 2 0.4 9.85776e-05 0.5
18 2 0.425 0.0493874 0.5
19 2 0.45 9.85776e-05 0.5
20 2 0.475 0.0493874 0.5
21 2 0 0.0986762 0.5
23 2 0.05 0.0986762 0.5
25 2 0.1 0.0986762 0.5
27 2 0.15 0.0986762 0.5
29 2 0.2 0.0986762 0.5
31 2 0.25 0.0986762 0.5
33 2 0.3 0.0986762 0.5
35 2 0.35 0.0986762 0.5
37 2 0.4 0.0986762 0.5
39 2 0.45 0.0986762 0.5
22 1 0.0270862 0.146934 0.5
100 1 0.474502 0.439966 0.5
43 1 0.0524015 0.196136 0.5
24 1 0.0759764 0.149234 0.5
45 1 0.101586 0.193346 0.5
26 1 0.124159 0.146467 0.5
28 1 0.179275 0.145857 0.5
47 1 0.150224 0.19709 0.5
30 1 0.23003 0.150373 0.5
49 1 0.199323 0.197414 0.5
32 1 0.276837 0.149909 0.5
51 1 0.249252 0.200401 0.5
53 1 0.302613 0.198702 0.5
34 1 0.327081 0.145871 0.5
55 1 0.353162 0.193629 0.5
36 1 0.375903 0.143593 0.5
38 1 0.426101 0.143859 0.5
57 1 0.403594 0.192329 0.5
40 1 0.478188 0.149208 0.5
59 1 0.44942 0.191322 0.5
42 1 0.0259455 0.243335 0.5
44 1 0.0736067 0.243925 0.5
46 1 0.123776 0.245453 0.5
48 1 0.171877 0.244311 0.5
50 1 0.224411 0.249541 0.5
52 1 0.280066 0.244355 0.5
54 1 0.330444 0.245592 0.5
56 1 0.377776 0.242055 0.5
58 1 0.427818 0.242166 0.5
60 1 0.476145 0.24585 0.5
98 1 0.424354 0.443809 0.5
62 1 0.0245556 0.340576 0.5
63 1 0.0485502 0.291377 0.5
64 1 0.075947 0.343961 0.5
65 1 0.101662 0.294148 0.5
66 1 0.126177 0.348122 0.5
67 1 0.149616 0.296455 0.5
68 1 0.173813 0.347652 0.5
69 1 0.200555 0.297154 0.5
70 1 0.226998 0.342898 0.5
71 1 0.255373 0.293823 0.5
72 1 0.276788 0.346251 0.5
73 1 0.30334 0.294078 0.5
74 1 0.327002 0.346389 0.5
75 1 0.353499 0.292974 0.5
76 1 0.375879 0.339688 0.5
77 1 0.4007 0.292323 0.5
78 1 0.422858 0.345774 0.5
79 1 0.449864 0.292973 0.5
80 1 0.474294 0.345695 0.5
96 1 0.371271 0.447196 0.5
83 1 0.0542052 0.389575 0.5
85 1 0.10801 0.396204 0.5
87 1 0.154709 0.401092 0.5
89 1 0.201697 0.392542 0.5
91 1 0.253402 0.39525 0.5
93 1 0.299681 0.397143 0.5
95 1 0.348649 0.396379 0.5
97 1 0.396216 0.393426 0.5
99 1 0.448377 0.396255 0.5
82 1 0.0282388 0.439704 0.5
84 1 0.07991 0.441953 0.5
86 1 0.128234 0.452135 0.5
88 1 0.17701 0.449861 0.5
90 1 0.223763 0.440197 0.5
92 1 0.276023 0.448243 0.5
94 1 0.323057 0.445716 0.5
109 1 0.199564 0.499899 0.5
103 1 0.0511638 0.49051 0.5
105 1 0.098792 0.496122 0.5
41 1 0.000718821 0.194122 0.5
291 1 0.498347 0.394668 0.5
101 1 0.00194851 0.490034 0.5
115 1 0.349164 0.496696 0.5
117 1 0.399778 0.492145 0.5
119 1 0.448336 0.493536 0.5
81 1 0.0028654 0.389558 0.5
111 1 0.248561 0.494563 0.5
61 1 0.00340063 0.295545 0.5
113 1 0.297597 0.49376 0.5
107 1 0.150606 0.499486 0.5
102 1 0.0243767 0.54042 0.5
204 1 0.144074 0.99669 0.5
104 1 0.0730704 0.540414 0.5
196 1 0.374467 0.934507 0.5
106 1 0.122983 0.546865 0.5
208 1 0.348935 0.990372 0.5
108 1 0.17628 0.548264 0.5
194 1 0.325888 0.939217 0.5
110 1 0.224182 0.547477 0.5
331 1 0.496016 0.585978 0.5
112 1 0.271564 0.542571 0.5
207 1 0.297432 0.989551 0.5
114 1 0.325718 0.544818 0.5
206 1 0.24532 0.983768 0.5
116 1 0.375011 0.538742 0.5
192 1 0.274961 0.939978 0.5
118 1 0.42415 0.541558 0.5
205 1 0.199524 0.989713 0.5
120 1 0.475213 0.538066 0.5
210 1 0.449936 0.991053 0.5
123 1 0.0477592 0.590383 0.5
125 1 0.0984639 0.591576 0.5
127 1 0.150989 0.594304 0.5
129 1 0.198755 0.598497 0.5
131 1 0.248431 0.596507 0.5
133 1 0.297689 0.589858 0.5
135 1 0.349609 0.591213 0.5
137 1 0.398283 0.590616 0.5
139 1 0.447611 0.588138 0.5
122 1 0.0230131 0.642347 0.5
200 1 0.482089 0.936292 0.5
143 1 0.049173 0.691297 0.5
124 1 0.0750722 0.641548 0.5
145 1 0.0988803 0.691972 0.5
126 1 0.120516 0.643777 0.5
128 1 0.172543 0.644847 0.5
147 1 0.146173 0.695389 0.5
130 1 0.221879 0.647716 0.5
149 1 0.193601 0.692206 0.5
132 1 0.277245 0.642755 0.5
151 1 0.251778 0.692555 0.5
153 1 0.300777 0.694978 0.5
134 1 0.324932 0.640438 0.5
155 1 0.351306 0.69397 0.5
136 1 0.376242 0.640553 0.5
138 1 0.424693 0.640449 0.5
157 1 0.40071 0.690857 0.5
140 1 0.47183 0.633494 0.5
159 1 0.451395 0.688026 0.5
142 1 0.0235173 0.74058 0.5
144 1 0.0750763 0.739825 0.5
146 1 0.121353 0.74379 0.5
148 1 0.172481 0.746294 0.5
150 1 0.223282 0.737956 0.5
152 1 0.272926 0.745566 0.5
154 1 0.328819 0.745385 0.5
156 1 0.380547 0.73915 0.5
158 1 0.430188 0.736392 0.5
160 1 0.48138 0.735317 0.5
190 1 0.220325 0.937955 0.5
162 1 0.0217518 0.841252 0.5
163 1 0.046305 0.789018 0.5
164 1 0.0718092 0.838733 0.5
165 1 0.0950729 0.788171 0.5
166 1 0.119897 0.842989 0.5
167 1 0.145667 0.793504 0.5
168 1 0.170301 0.845211 0.5
169 1 0.195767 0.795644 0.5
170 1 0.219921 0.846065 0.5
171 1 0.245945 0.790146 0.5
172 1 0.268396 0.842951 0.5
173 1 0.302498 0.792047 0.5
174 1 0.320449 0.840536 0.5
175 1 0.355515 0.794013 0.5
176 1 0.376628 0.844322 0.5
177 1 0.407459 0.786812 0.5
178 1 0.430553 0.835246 0.5
179 1 0.457389 0.786862 0.5
180 1 0.477435 0.837404 0.5
209 1 0.397591 0.981422 0.5
183 1 0.0460767 0.893839 0.5
185 1 0.0938591 0.890789 0.5
187 1 0.143813 0.890216 0.5
189 1 0.192423 0.894357 0.5
191 1 0.247575 0.893149 0.5
193 1 0.297579 0.891016 0.5
195 1 0.349544 0.889532 0.5
197 1 0.405829 0.888418 0.5
199 1 0.452234 0.888553 0.5
182 1 0.01935 0.94196 0.5
198 1 0.424058 0.937875 0.5
202 1 0.0392587 0.993425 0.5
184 1 0.0672677 0.946245 0.5
203 1 0.0879793 0.998081 0.5
186 1 0.117536 0.941285 0.5
188 1 0.168622 0.944859 0.5
211 2 0.5 9.85776e-05 0.5
212 2 0.525 0.0493874 0.5
213 2 0.55 9.85776e-05 0.5
214 2 0.575 0.0493874 0.5
215 2 0.6 9.85776e-05 0.5
216 2 0.625 0.0493874 0.5
217 2 0.65 9.85776e-05 0.5
218 2 0.675 0.0493874 0.5
219 2 0.7 9.85776e-05 0.5
220 2 0.725 0.0493874 0.5
221 2 0.75 9.85776e-05 0.5
222 2 0.775 0.0493874 0.5
223 2 0.8 9.85776e-05 0.5
224 2 0.825 0.0493874 0.5
225 2 0.85 9.85776e-05 0.5
226 2 0.875 0.0493874 0.5
227 2 0.9 9.85776e-05 0.5
228 2 0.925 0.0493874 0.5
229 2 0.95 9.85776e-05 0.5
230 2 0.975 0.0493874 0.5
231 2 0.5 0.0986762 0.5
233 2 0.55 0.0986762 0.5
235 2 0.6 0.0986762 0.5
237 2 0.65 0.0986762 0.5
239 2 0.7 0.0986762 0.5
241 2 0.75 0.0986762 0.5
243 2 0.8 0.0986762 0.5
245 2 0.85 0.0986762 0.5
247 2 0.9 0.0986762 0.5
249 2 0.95 0.0986762 0.5
232 1 0.527848 0.147582 0.5
251 1 0.503667 0.198185 0.5
253 1 0.552816 0.199727 0.5
234 1 0.57793 0.145615 0.5
255 1 0.603205 0.197801 0.5
236 1 0.626734 0.14615 0.5
238 1 0.674567 0.145428 0.5
257 1 0.651043 0.197774 0.5
240 1 0.724961 0.14411 0.5
259 1 0.699544 0.195692 0.5
242 1 0.772066 0.148482 0.5
261 1 0.747932 0.19818 0.5
263 1 0.796925 0.196745 0.5
244 1 0.821724 0.147982 0.5
265 1 0.845285 0.196707 0.5
246 1 0.870339 0.1505 0.5
248 1 0.924165 0.148737 0.5
267 1 0.895317 0.197832 0.5
250 1 0.974046 0.148368 0.5
269 1 0.949933 0.196158 0.5
252 1 0.524041 0.248415 0.5
254 1 0.576564 0.248773 0.5
256 1 0.624065 0.245302 0.5
258 1 0.67662 0.248138 0.5
260 1 0.723486 0.246451 0.5
262 1 0.771207 0.246941 0.5
264 1 0.819211 0.248534 0.5
266 1 0.873659 0.248836 0.5
268 1 0.925103 0.247001 0.5
270 1 0.975844 0.242439 0.5
317 1 0.651126 0.493411 0.5
272 1 0.525913 0.347058 0.5
273 1 0.551082 0.297356 0.5
274 1 0.576081 0.346632 0.5
275 1 0.601391 0.297415 0.5
276 1 0.626943 0.349631 0.5
277 1 0.652529 0.298166 0.5
278 1 0.674876 0.348298 0.5
279 1 0.699847 0.295848 0.5
280 1 0.725359 0.345626 0.5
281 1 0.750361 0.297109 0.5
282 1 0.778719 0.348562 0.5
283 1 0.797096 0.298162 0.5
284 1 0.825358 0.342745 0.5
285 1 0.846304 0.294373 0.5
286 1 0.875369 0.340097 0.5
287 1 0.905332 0.296481 0.5
288 1 0.92952 0.344748 0.5
289 1 0.953484 0.29131 0.5
290 1 0.976414 0.343521 0.5
327 1 0.901188 0.488931 0.5
293 1 0.551747 0.393671 0.5
295 1 0.604418 0.397749 0.5
297 1 0.653028 0.401361 0.5
299 1 0.705568 0.397074 0.5
301 1 0.753359 0.402833 0.5
303 1 0.798587 0.399807 0.5
305 1 0.848387 0.392857 0.5
307 1 0.898918 0.388379 0.5
309 1 0.953061 0.392723 0.5
292 1 0.526852 0.440376 0.5
294 1 0.575549 0.443717 0.5
296 1 0.624883 0.448178 0.5
298 1 0.677457 0.446186 0.5
300 1 0.72828 0.449232 0.5
302 1 0.77989 0.4487 0.5
304 1 0.827372 0.446797 0.5
306 1 0.873659 0.439368 0.5
308 1 0.924796 0.441333 0.5
310 1 0.977231 0.443238 0.5
319 1 0.701927 0.493805 0.5
271 1 0.501904 0.301005 0.5
329 1 0.949788 0.488777 0.5
325 1 0.851811 0.492805 0.5
313 1 0.548219 0.492457 0.5
315 1 0.6 0.493163 0.5
321 1 0.750712 0.497593 0.5
323 1 0.801608 0.496946 0.5
311 1 0.500443 0.488643 0.5
201 1 0.992063 0.98919 0.5
312 1 0.520663 0.537266 0.5
181 1 0.995255 0.888389 0.5
314 1 0.571899 0.540878 0.5
418 1 0.848334 1.00003 0.5
316 1 0.625998 0.54723 0.5
417 1 0.797623 0.985018 0.5
318 1 0.675144 0.540311 0.5
351 1 0.501357 0.686226 0.5
320 1 0.725816 0.54056 0.5
121 1 0.99989 0.590952 0.5
322 1 0.776965 0.543703 0.5
419 1 0.896203 0.99734 0.5
324 1 0.826187 0.544294 0.5
408 1 0.91843 0.944697 0.5
326 1 0.876751 0.54199 0.5
404 1 0.823144 0.934284 0.5
328 1 0.926823 0.537718 0.5
406 1 0.869847 0.947954 0.5
330 1 0.976936 0.538154 0.5
161 1 0.997945 0.791825 0.5
333 1 0.543719 0.585445 0.5
335 1 0.596835 0.589823 0.5
337 1 0.650324 0.593298 0.5
339 1 0.700209 0.589302 0.5
341 1 0.751217 0.58886 0.5
343 1 0.800942 0.59013 0.5
345 1 0.852073 0.59306 0.5
347 1 0.900766 0.590688 0.5
349 1 0.95121 0.587606 0.5
332 1 0.52402 0.638315 0.5
420 1 0.94455 0.991011 0.5
353 1 0.551311 0.684535 0.5
334 1 0.573927 0.637776 0.5
355 1 0.600106 0.685389 0.5
336 1 0.621007 0.638106 0.5
338 1 0.678484 0.641019 0.5
357 1 0.65093 0.685321 0.5
340 1 0.727542 0.640458 0.5
359 1 0.70462 0.687693 0.5
342 1 0.777821 0.642717 0.5
361 1 0.753725 0.689393 0.5
363 1 0.80202 0.6902 0.5
344 1 0.825224 0.638786 0.5
365 1 0.850249 0.687907 0.5
346 1 0.873529 0.639775 0.5
348 1 0.925884 0.639599 0.5
367 1 0.900143 0.686955 0.5
350 1 0.974806 0.638607 0.5
369 1 0.949625 0.687201 0.5
352 1 0.529485 0.73851 0.5
354 1 0.577605 0.736663 0.5
356 1 0.625203 0.734556 0.5
358 1 0.673991 0.733653 0.5
360 1 0.730354 0.738148 0.5
362 1 0.777196 0.73581 0.5
364 1 0.826535 0.740563 0.5
366 1 0.873119 0.741619 0.5
368 1 0.922435 0.736305 0.5
370 1 0.969732 0.74003 0.5
371 1 0.50435 0.786484 0.5
372 1 0.527807 0.834034 0.5
373 1 0.553152 0.786884 0.5
374 1 0.575638 0.836277 0.5
375 1 0.600795 0.786355 0.5
376 1 0.623501 0.833491 0.5
377 1 0.651123 0.784505 0.5
378 1 0.67937 0.832701 0.5
379 1 0.70193 0.785781 0.5
380 1 0.725725 0.833506 0.5
381 1 0.753141 0.785409 0.5
382 1 0.776113 0.837123 0.5
383 1 0.800489 0.790418 0.5
384 1 0.825878 0.836307 0.5
385 1 0.852629 0.789187 0.5
386 1 0.8743 0.839657 0.5
387 1 0.900488 0.787534 0.5
388 1 0.92219 0.836739 0.5
389 1 0.948397 0.787741 0.5
390 1 0.97079 0.839844 0.5
391 1 0.501327 0.886691 0.5
393 1 0.551417 0.88333 0.5
395 1 0.603513 0.883952 0.5
397 1 0.652964 0.885827 0.5
399 1 0.701328 0.891196 0.5
401 1 0.750455 0.886295 0.5
403 1 0.800332 0.887183 0.5
405 1 0.850941 0.888952 0.5
407 1 0.8974 0.893134 0.5
409 1 0.946073 0.88794 0.5
392 1 0.532978 0.946608 0.5
410 1 0.966896 0.939324 0.5
412 1 0.55706 0.996985 0.5
394 1 0.578776 0.92931 0.5
413 1 0.600417 0.978089 0.5
396 1 0.629007 0.932552 0.5
398 1 0.677373 0.939619 0.5
414 1 0.648221 0.986646 0.5
400 1 0.727982 0.938009 0.5
415 1 0.701239 0.985289 0.5
402 1 0.773984 0.934587 0.5
416 1 0.75197 0.984111 0.5
411 1 0.502497 0.989048 0.5
141 1 0.998796 0.6914 0.5
ITEM: TIMESTEP
500
ITEM: NUMBER OF ATOMS
420
ITEM: BOX BOUNDS pp ss pp
0.0000000000000000e+00 2.2653923264628304e+01
-1.9618873042551413e-03 1.9774140494868163e+01
-2.8317404080785380e-01 2.8317404080785380e-01
ITEM: ATOMS id type xs ys zs
1 2 0 9.9205e-05 0.5
2 2 0.025 0.0497017 0.5
3 2 0.05 9.9205e-05 0.5
4 2 0.075 0.0497017 0.5
5 2 0.1 9.9205e-05 0.5
6 2 0.125 0.0497017 0.5
7 2 0.15 9.9205e-05 0.5
8 2 0.175 0.0497017 0.5
9 2 0.2 9.9205e-05 0.5
10 2 0.225 0.0497017 0.5
11 2 0.25 9.9205e-05 0.5
12 2 0.275 0.0497017 0.5
13 2 0.3 9.9205e-05 0.5
14 2 0.325 0.0497017 0.5
15 2 0.35 9.9205e-05 0.5
16 2 0.375 0.0497017 0.5
17 2 0.4 9.9205e-05 0.5
18 2 0.425 0.0497017 0.5
19 2 0.45 9.9205e-05 0.5
20 2 0.475 0.0497017 0.5
21 2 0 0.0993042 0.5
23 2 0.05 0.0993042 0.5
25 2 0.1 0.0993042 0.5
27 2 0.15 0.0993042 0.5
29 2 0.2 0.0993042 0.5
31 2 0.25 0.0993042 0.5
33 2 0.3 0.0993042 0.5
35 2 0.35 0.0993042 0.5
37 2 0.4 0.0993042 0.5
39 2 0.45 0.0993042 0.5
22 1 0.0249054 0.150785 0.5
100 1 0.475206 0.447912 0.5
43 1 0.0527687 0.202845 0.5
24 1 0.0754603 0.150439 0.5
45 1 0.0999235 0.19822 0.5
26 1 0.122727 0.148703 0.5
28 1 0.171236 0.145815 0.5
47 1 0.148697 0.197862 0.5
30 1 0.226992 0.147145 0.5
49 1 0.197316 0.192225 0.5
32 1 0.275652 0.148768 0.5
51 1 0.248511 0.19843 0.5
53 1 0.299265 0.198545 0.5
34 1 0.325909 0.147587 0.5
55 1 0.347726 0.199812 0.5
36 1 0.373331 0.151905 0.5
38 1 0.423045 0.148676 0.5
57 1 0.396256 0.200269 0.5
40 1 0.472308 0.146621 0.5
59 1 0.446085 0.199697 0.5
42 1 0.0248173 0.247528 0.5
44 1 0.0753681 0.251837 0.5
46 1 0.126898 0.247036 0.5
48 1 0.175467 0.249311 0.5
50 1 0.224318 0.245116 0.5
52 1 0.274924 0.249141 0.5
54 1 0.322768 0.24824 0.5
56 1 0.372212 0.250708 0.5
58 1 0.422526 0.248478 0.5
60 1 0.470115 0.247365 0.5
98 1 0.427319 0.444236 0.5
62 1 0.0247857 0.34875 0.5
63 1 0.0502995 0.301719 0.5
64 1 0.0751159 0.346874 0.5
65 1 0.09937 0.299591 0.5
66 1 0.123595 0.349271 0.5
67 1 0.149997 0.298593 0.5
68 1 0.173702 0.344457 0.5
69 1 0.200467 0.298916 0.5
70 1 0.2256 0.347434 0.5
71 1 0.25055 0.297214 0.5
72 1 0.273155 0.34919 0.5
73 1 0.297334 0.300051 0.5
74 1 0.320322 0.349165 0.5
75 1 0.346138 0.298294 0.5
76 1 0.37334 0.347019 0.5
77 1 0.401458 0.299412 0.5
78 1 0.424529 0.349938 0.5
79 1 0.45055 0.298921 0.5
80 1 0.476879 0.347976 0.5
96 1 0.378424 0.44639 0.5
83 1 0.0506904 0.395224 0.5
85 1 0.0991735 0.396754 0.5
87 1 0.150092 0.398609 0.5
89 1 0.198939 0.39833 0.5
91 1 0.251526 0.396787 0.5
93 1 0.300434 0.40062 0.5
95 1 0.352597 0.394706 0.5
97 1 0.399742 0.396192 0.5
99 1 0.451383 0.399078 0.5
82 1 0.0266607 0.44674 0.5
84 1 0.0758195 0.444801 0.5
86 1 0.122087 0.448476 0.5
88 1 0.172955 0.445397 0.5
90 1 0.224174 0.446668 0.5
92 1 0.276728 0.446872 0.5
94 1 0.32773 0.444342 0.5
109 1 0.199973 0.495514 0.5
103 1 0.0528541 0.493789 0.5
105 1 0.0991896 0.498829 0.5
101 1 0.00303889 0.499335 0.5
107 1 0.150314 0.496243 0.5
113 1 0.302586 0.495696 0.5
115 1 0.351944 0.494791 0.5
117 1 0.403196 0.497159 0.5
291 1 0.499723 0.395912 0.5
81 1 0.00305306 0.399423 0.5
111 1 0.24737 0.495312 0.5
251 1 0.496481 0.197061 0.5
311 1 0.499491 0.497047 0.5
41 1 0.00249 0.198651 0.5
188 1 0.173081 0.949643 0.5
102 1 0.0256076 0.546766 0.5
204 1 0.150629 0.998221 0.5
104 1 0.0756153 0.548433 0.5
196 1 0.375173 0.942139 0.5
106 1 0.124407 0.546992 0.5
208 1 0.348006 0.995903 0.5
108 1 0.175325 0.545694 0.5
194 1 0.325379 0.945011 0.5
110 1 0.223784 0.548473 0.5
186 1 0.124627 0.949918 0.5
112 1 0.275587 0.541222 0.5
207 1 0.299648 0.994157 0.5
114 1 0.327649 0.547582 0.5
206 1 0.246574 0.998876 0.5
116 1 0.375121 0.544725 0.5
192 1 0.278133 0.943662 0.5
118 1 0.426754 0.549158 0.5
205 1 0.198084 0.998997 0.5
120 1 0.478543 0.550301 0.5
210 1 0.448643 0.987978 0.5
123 1 0.0511242 0.596199 0.5
125 1 0.103074 0.595694 0.5
127 1 0.150431 0.595636 0.5
129 1 0.198121 0.596897 0.5
131 1 0.251594 0.595276 0.5
133 1 0.300801 0.592683 0.5
135 1 0.348904 0.598035 0.5
137 1 0.401292 0.596856 0.5
139 1 0.449086 0.599254 0.5
122 1 0.0271365 0.651824 0.5
200 1 0.473837 0.941662 0.5
143 1 0.0527094 0.699882 0.5
124 1 0.0794738 0.644092 0.5
145 1 0.0989082 0.698354 0.5
126 1 0.128481 0.647091 0.5
128 1 0.175377 0.647069 0.5
147 1 0.150576 0.698326 0.5
130 1 0.223352 0.647113 0.5
149 1 0.199169 0.696026 0.5
132 1 0.274618 0.643479 0.5
151 1 0.248385 0.69412 0.5
153 1 0.299256 0.697421 0.5
134 1 0.322458 0.647314 0.5
155 1 0.34925 0.697218 0.5
136 1 0.373437 0.645748 0.5
138 1 0.424658 0.647026 0.5
157 1 0.398171 0.698339 0.5
140 1 0.474663 0.648109 0.5
159 1 0.448652 0.701177 0.5
142 1 0.0249714 0.747967 0.5
144 1 0.0748802 0.74938 0.5
146 1 0.126461 0.748397 0.5
148 1 0.174773 0.748427 0.5
150 1 0.224515 0.748584 0.5
152 1 0.272965 0.744571 0.5
154 1 0.32445 0.750465 0.5
156 1 0.371802 0.747899 0.5
158 1 0.421132 0.747231 0.5
160 1 0.472541 0.750928 0.5
190 1 0.226986 0.945196 0.5
162 1 0.0239239 0.84829 0.5
163 1 0.0492728 0.79531 0.5
164 1 0.073417 0.848109 0.5
165 1 0.100888 0.795146 0.5
166 1 0.123611 0.845259 0.5
167 1 0.150055 0.798989 0.5
168 1 0.174812 0.849061 0.5
169 1 0.199651 0.797531 0.5
170 1 0.226036 0.850139 0.5
171 1 0.247306 0.798768 0.5
172 1 0.273538 0.847413 0.5
173 1 0.297845 0.798444 0.5
174 1 0.322971 0.846694 0.5
175 1 0.348581 0.798115 0.5
176 1 0.373069 0.845079 0.5
177 1 0.399243 0.796294 0.5
178 1 0.421805 0.844046 0.5
179 1 0.447915 0.79712 0.5
180 1 0.470861 0.847054 0.5
209 1 0.398395 0.994254 0.5
183 1 0.0506762 0.900255 0.5
185 1 0.101745 0.896843 0.5
187 1 0.15024 0.899128 0.5
189 1 0.201249 0.90013 0.5
191 1 0.2509 0.898277 0.5
193 1 0.301547 0.896508 0.5
195 1 0.348495 0.896811 0.5
197 1 0.398486 0.89502 0.5
199 1 0.447296 0.895226 0.5
182 1 0.023629 0.94805 0.5
198 1 0.424213 0.941969 0.5
202 1 0.0471574 0.99633 0.5
184 1 0.0734174 0.948589 0.5
203 1 0.0984641 0.99992 0.5
411 1 0.497846 0.988109 0.5
371 1 0.496206 0.797742 0.5
391 1 0.497266 0.893103 0.5
351 1 0.49829 0.697497 0.5
141 1 0.00309596 0.698917 0.5
121 1 0.00208269 0.599822 0.5
181 1 0.00123131 0.895553 0.5
119 1 0.451814 0.503218 0.5
211 2 0.5 9.9205e-05 0.5
212 2 0.525 0.0497017 0.5
213 2 0.55 9.9205e-05 0.5
214 2 0.575 0.0497017 0.5
215 2 0.6 9.9205e-05 0.5
216 2 0.625 0.0497017 0.5
217 2 0.65 9.9205e-05 0.5
218 2 0.675 0.0497017 0.5
219 2 0.7 9.9205e-05 0.5
220 2 0.725 0.0497017 0.5
221 2 0.75 9.9205e-05 0.5
222 2 0.775 0.0497017 0.5
223 2 0.8 9.9205e-05 0.5
224 2 0.825 0.0497017 0.5
225 2 0.85 9.9205e-05 0.5
226 2 0.875 0.0497017 0.5
227 2 0.9 9.9205e-05 0.5
228 2 0.925 0.0497017 0.5
229 2 0.95 9.9205e-05 0.5
230 2 0.975 0.0497017 0.5
231 2 0.5 0.0993042 0.5
233 2 0.55 0.0993042 0.5
235 2 0.6 0.0993042 0.5
237 2 0.65 0.0993042 0.5
239 2 0.7 0.0993042 0.5
241 2 0.75 0.0993042 0.5
243 2 0.8 0.0993042 0.5
245 2 0.85 0.0993042 0.5
247 2 0.9 0.0993042 0.5
249 2 0.95 0.0993042 0.5
232 1 0.524224 0.147269 0.5
323 1 0.801454 0.495525 0.5
253 1 0.549355 0.19769 0.5
234 1 0.575864 0.148806 0.5
255 1 0.602989 0.197353 0.5
236 1 0.625991 0.146955 0.5
238 1 0.675687 0.147282 0.5
257 1 0.652705 0.195318 0.5
240 1 0.728245 0.147473 0.5
259 1 0.704682 0.197802 0.5
242 1 0.77766 0.147409 0.5
261 1 0.754991 0.196988 0.5
263 1 0.801996 0.196409 0.5
244 1 0.825742 0.148119 0.5
265 1 0.852963 0.196554 0.5
246 1 0.874759 0.148092 0.5
248 1 0.92618 0.149221 0.5
267 1 0.901499 0.19898 0.5
250 1 0.976025 0.149354 0.5
269 1 0.951112 0.198736 0.5
252 1 0.525013 0.245502 0.5
254 1 0.575297 0.24413 0.5
256 1 0.624479 0.244829 0.5
258 1 0.676304 0.242515 0.5
260 1 0.729692 0.244206 0.5
262 1 0.779345 0.246098 0.5
264 1 0.82871 0.245481 0.5
266 1 0.875678 0.247707 0.5
268 1 0.924847 0.248624 0.5
270 1 0.977069 0.246121 0.5
317 1 0.649954 0.491921 0.5
272 1 0.524997 0.34621 0.5
273 1 0.549221 0.296888 0.5
274 1 0.574983 0.345224 0.5
275 1 0.596973 0.294292 0.5
276 1 0.624113 0.344437 0.5
277 1 0.649512 0.298137 0.5
278 1 0.67301 0.349082 0.5
279 1 0.698923 0.291673 0.5
280 1 0.726059 0.345372 0.5
281 1 0.75481 0.293544 0.5
282 1 0.775651 0.346894 0.5
283 1 0.802934 0.296105 0.5
284 1 0.826976 0.344792 0.5
285 1 0.851742 0.295629 0.5
286 1 0.878309 0.345543 0.5
287 1 0.901209 0.297738 0.5
288 1 0.925265 0.348328 0.5
289 1 0.950753 0.297176 0.5
290 1 0.978267 0.351832 0.5
327 1 0.90068 0.495117 0.5
293 1 0.548897 0.394522 0.5
295 1 0.59764 0.3949 0.5
297 1 0.645245 0.39435 0.5
299 1 0.699665 0.391853 0.5
301 1 0.748716 0.393825 0.5
303 1 0.801511 0.395287 0.5
305 1 0.852537 0.395568 0.5
307 1 0.899636 0.395046 0.5
309 1 0.951926 0.400519 0.5
292 1 0.524223 0.444077 0.5