ITEM: TIMESTEP
0
ITEM: NUMBER OF ATOMS
420
ITEM: BOX BOUNDS pp ss pp
0.0000000000000000e+00 2.2653923264628304e+01
-1.9618873042551413e-03 1.9620834929855668e+01
-2.8317404080785380e-01 2.8317404080785380e-01
ITEM: ATOMS id type xs ys zs
1 2 0 9.998e-05 0.5
2 2 0.025 0.05009 0.5
3 2 0.05 9.998e-05 0.5
4 2 0.075 0.05009 0.5
5 2 0.1 9.998e-05 0.5
6 2 0.125 0.05009 0.5
7 2 0.15 9.998e-05 0.5
8 2 0.175 0.05009 0.5
9 2 0.2 9.998e-05 0.5
10 2 0.225 0.05009 0.5
11 2 0.25 9.998e-05 0.5
12 2 0.275 0.05009 0.5
13 2 0.3 9.998e-05 0.5
14 2 0.325 0.05009 0.5
15 2 0.35 9.998e-05 0.5
16 2 0.375 0.05009 0.5
17 2 0.4 9.998e-05 0.5
18 2 0.425 0.05009 0.5
19 2 0.45 9.998e-05 0.5
20 2 0.475 0.05009 0.5
21 2 0 0.10008 0.5
23 2 0.05 0.10008 0.5
25 2 0.1 0.10008 0.5
27 2 0.15 0.10008 0.5
29 2 0.2 0.10008 0.5
31 2 0.25 0.10008 0.5
33 2 0.3 0.10008 0.5
35 2 0.35 0.10008 0.5
37 2 0.4 0.10008 0.5
39 2 0.45 0.10008 0.5
22 1 0.025 0.15007 0.5
41 1 0 0.20006 0.5
43 1 0.05 0.20006 0.5
24 1 0.075 0.15007 0.5
45 1 0.1 0.20006 0.5
26 1 0.125 0.15007 0.5
28 1 0.175 0.15007 0.5
47 1 0.15 0.20006 0.5
30 1 0.225 0.15007 0.5
49 1 0.2 0.20006 0.5
32 1 0.275 0.15007 0.5
51 1 0.25 0.20006 0.5
53 1 0.3 0.20006 0.5
34 1 0.325 0.15007 0.5
55 1 0.35 0.20006 0.5
36 1 0.375 0.15007 0.5
38 1 0.425 0.15007 0.5
57 1 0.4 0.20006 0.5
40 1 0.475 0.15007 0.5
59 1 0.45 0.20006 0.5
42 1 0.025 0.25005 0.5
44 1 0.075 0.25005 0.5
46 1 0.125 0.25005 0.5
48 1 0.175 0.25005 0.5
50 1 0.225 0.25005 0.5
52 1 0.275 0.25005 0.5
54 1 0.325 0.25005 0.5
56 1 0.375 0.25005 0.5
58 1 0.425 0.25005 0.5
60 1 0.475 0.25005 0.5
61 1 0 0.30004 0.5
62 1 0.025 0.35003 0.5
63 1 0.05 0.30004 0.5
64 1 0.075 0.35003 0.5
65 1 0.1 0.30004 0.5
66 1 0.125 0.35003 0.5
67 1 0.15 0.30004 0.5
68 1 0.175 0.35003 0.5
69 1 0.2 0.30004 0.5
70 1 0.225 0.35003 0.5
71 1 0.25 0.30004 0.5
72 1 0.275 0.35003 0.5
73 1 0.3 0.30004 0.5
74 1 0.325 0.35003 0.5
75 1 0.35 0.30004 0.5
76 1 0.375 0.35003 0.5
77 1 0.4 0.30004 0.5
78 1 0.425 0.35003 0.5
79 1 0.45 0.30004 0.5
80 1 0.475 0.35003 0.5
81 1 0 0.40002 0.5
83 1 0.05 0.40002 0.5
85 1 0.1 0.40002 0.5
87 1 0.15 0.40002 0.5
89 1 0.2 0.40002 0.5
91 1 0.25 0.40002 0.5
93 1 0.3 0.40002 0.5
95 1 0.35 0.40002 0.5
97 1 0.4 0.40002 0.5
99 1 0.45 0.40002 0.5
82 1 0.025 0.45001 0.5
84 1 0.075 0.45001 0.5
86 1 0.125 0.45001 0.5
88 1 0.175 0.45001 0.5
90 1 0.225 0.45001 0.5
92 1 0.275 0.45001 0.5
94 1 0.325 0.45001 0.5
96 1 0.375 0.45001 0.5
98 1 0.425 0.45001 0.5
100 1 0.475 0.45001 0.5
101 1 0 0.5 0.5
102 1 0.025 0.54999 0.5
103 1 0.05 0.5 0.5
104 1 0.075 0.54999 0.5
105 1 0.1 0.5 0.5
106 1 0.125 0.54999 0.5
107 1 0.15 0.5 0.5
108 1 0.175 0.54999 0.5
109 1 0.2 0.5 0.5
110 1 0.225 0.54999 0.5
111 1 0.25 0.5 0.5
112 1 0.275 0.54999 0.5
113 1 0.3 0.5 0.5
114 1 0.325 0.54999 0.5
115 1 0.35 0.5 0.5
116 1 0.375 0.54999 0.5
117 1 0.4 0.5 0.5
118 1 0.425 0.54999 0.5
119 1 0.45 0.5 0.5
120 1 0.475 0.54999 0.5
121 1 0 0.59998 0.5
123 1 0.05 0.59998 0.5
125 1 0.1 0.59998 0.5
127 1 0.15 0.59998 0.5
129 1 0.2 0.59998 0.5
131 1 0.25 0.59998 0.5
133 1 0.3 0.59998 0.5
135 1 0.35 0.59998 0.5
137 1 0.4 0.59998 0.5
139 1 0.45 0.59998 0.5
122 1 0.025 0.64997 0.5
141 1 0 0.69996 0.5
143 1 0.05 0.69996 0.5
124 1 0.075 0.64997 0.5
145 1 0.1 0.69996 0.5
126 1 0.125 0.64997 0.5
128 1 0.175 0.64997 0.5
147 1 0.15 0.69996 0.5
130 1 0.225 0.64997 0.5
149 1 0.2 0.69996 0.5
132 1 0.275 0.64997 0.5
151 1 0.25 0.69996 0.5
153 1 0.3 0.69996 0.5
134 1 0.325 0.64997 0.5
155 1 0.35 0.69996 0.5
136 1 0.375 0.64997 0.5
138 1 0.425 0.64997 0.5
157 1 0.4 0.69996 0.5
140 1 0.475 0.64997 0.5
159 1 0.45 0.69996 0.5
142 1 0.025 0.74995 0.5
144 1 0.075 0.74995 0.5
146 1 0.125 0.74995 0.5
148 1 0.175 0.74995 0.5
150 1 0.225 0.74995 0.5
152 1 0.275 0.74995 0.5
154 1 0.325 0.74995 0.5
156 1 0.375 0.74995 0.5
158 1 0.425 0.74995 0.5
160 1 0.475 0.74995 0.5
161 1 0 0.79994 0.5
162 1 0.025 0.84993 0.5
163 1 0.05 0.79994 0.5
164 1 0.075 0.84993 0.5
165 1 0.1 0.79994 0.5
166 1 0.125 0.84993 0.5
167 1 0.15 0.79994 0.5
168 1 0.175 0.84993 0.5
169 1 0.2 0.79994 0.5
170 1 0.225 0.84993 0.5
171 1 0.25 0.79994 0.5
172 1 0.275 0.84993 0.5
173 1 0.3 0.79994 0.5
174 1 0.325 0.84993 0.5
175 1 0.35 0.79994 0.5
176 1 0.375 0.84993 0.5
177 1 0.4 0.79994 0.5
178 1 0.425 0.84993 0.5
179 1 0.45 0.79994 0.5
180 1 0.475 0.84993 0.5
181 1 0 0.89992 0.5
183 1 0.05 0.89992 0.5
185 1 0.1 0.89992 0.5
187 1 0.15 0.89992 0.5
189 1 0.2 0.89992 0.5
191 1 0.25 0.89992 0.5
193 1 0.3 0.89992 0.5
195 1 0.35 0.89992 0.5
197 1 0.4 0.89992 0.5
199 1 0.45 0.89992 0.5
182 1 0.025 0.94991 0.5
201 1 0 0.9999 0.5
202 1 0.05 0.9999 0.5
184 1 0.075 0.94991 0.5
203 1 0.1 0.9999 0.5
186 1 0.125 0.94991 0.5
188 1 0.175 0.94991 0.5
204 1 0.15 0.9999 0.5
190 1 0.225 0.94991 0.5
205 1 0.2 0.9999 0.5
192 1 0.275 0.94991 0.5
206 1 0.25 0.9999 0.5
207 1 0.3 0.9999 0.5
194 1 0.325 0.94991 0.5
208 1 0.35 0.9999 0.5
196 1 0.375 0.94991 0.5
198 1 0.425 0.94991 0.5
209 1 0.4 0.9999 0.5
200 1 0.475 0.94991 0.5
210 1 0.45 0.9999 0.5
211 2 0.5 9.998e-05 0.5
212 2 0.525 0.05009 0.5
213 2 0.55 9.998e-05 0.5
214 2 0.575 0.05009 0.5
215 2 0.6 9.998e-05 0.5
216 2 0.625 0.05009 0.5
217 2 0.65 9.998e-05 0.5
218 2 0.675 0.05009 0.5
219 2 0.7 9.998e-05 0.5
220 2 0.725 0.05009 0.5
221 2 0.75 9.998e-05 0.5
222 2 0.775 0.05009 0.5
223 2 0.8 9.998e-05 0.5
224 2 0.825 0.05009 0.5
225 2 0.85 9.998e-05 0.5
226 2 0.875 0.05009 0.5
227 2 0.9 9.998e-05 0.5
228 2 0.925 0.05009 0.5
229 2 0.95 9.998e-05 0.5
230 2 0.975 0.05009 0.5
231 2 0.5 0.10008 0.5
233 2 0.55 0.10008 0.5
235 2 0.6 0.10008 0.5
237 2 0.65 0.10008 0.5
239 2 0.7 0.10008 0.5
241 2 0.75 0.10008 0.5
243 2 0.8 0.10008 0.5
245 2 0.85 0.10008 0.5
247 2 0.9 0.10008 0.5
249 2 0.95 0.10008 0.5
232 1 0.525 0.15007 0.5
251 1 0.5 0.20006 0.5
253 1 0.55 0.20006 0.5
234 1 0.575 0.15007 0.5
255 1 0.6 0.20006 0.5
236 1 0.625 0.15007 0.5
238 1 0.675 0.15007 0.5
257 1 0.65 0.20006 0.5
240 1 0.725 0.15007 0.5
259 1 0.7 0.20006 0.5
242 1 0.775 0.15007 0.5
261 1 0.75 0.20006 0.5
263 1 0.8 0.20006 0.5
244 1 0.825 0.15007 0.5
265 1 0.85 0.20006 0.5
246 1 0.875 0.15007 0.5
248 1 0.925 0.15007 0.5
267 1 0.9 0.20006 0.5
250 1 0.975 0.15007 0.5
269 1 0.95 0.20006 0.5
252 1 0.525 0.25005 0.5
254 1 0.575 0.25005 0.5
256 1 0.625 0.25005 0.5
258 1 0.675 0.25005 0.5
260 1 0.725 0.25005 0.5
262 1 0.775 0.25005 0.5
264 1 0.825 0.25005 0.5
266 1 0.875 0.25005 0.5
268 1 0.925 0.25005 0.5
270 1 0.975 0.25005 0.5
271 1 0.5 0.30004 0.5
272 1 0.525 0.35003 0.5
273 1 0.55 0.30004 0.5
274 1 0.575 0.35003 0.5
275 1 0.6 0.30004 0.5
276 1 0.625 0.35003 0.5
277 1 0.65 0.30004 0.5
278 1 0.675 0.35003 0.5
279 1 0.7 0.30004 0.5
280 1 0.725 0.35003 0.5
281 1 0.75 0.30004 0.5
282 1 0.775 0.35003 0.5
283 1 0.8 0.30004 0.5
284 1 0.825 0.35003 0.5
285 1 0.85 0.30004 0.5
286 1 0.875 0.35003 0.5
287 1 0.9 0.30004 0.5
288 1 0.925 0.35003 0.5
289 1 0.95 0.30004 0.5
290 1 0.975 0.35003 0.5
291 1 0.5 0.40002 0.5
293 1 0.55 0.40002 0.5
295 1 0.6 0.40002 0.5
297 1 0.65 0.40002 0.5
299 1 0.7 0.40002 0.5
301 1 0.75 0.40002 0.5
303 1 0.8 0.40002 0.5
305 1 0.85 0.40002 0.5
307 1 0.9 0.40002 0.5
309 1 0.95 0.40002 0.5
292 1 0.525 0.45001 0.5
294 1 0.575 0.45001 0.5
296 1 0.625 0.45001 0.5
298 1 0.675 0.45001 0.5
300 1 0.725 0.45001 0.5
302 1 0.775 0.45001 0.5
304 1 0.825 0.45001 0.5
306 1 0.875 0.45001 0.5
308 1 0.925 0.45001 0.5
310 1 0.975 0.45001 0.5
311 1 0.5 0.5 0.5
312 1 0.525 0.54999 0.5
313 1 0.55 0.5 0.5
314 1 0.575 0.54999 0.5
315 1 0.6 0.5 0.5
316 1 0.625 0.54999 0.5
317 1 0.65 0.5 0.5
318 1 0.675 0.54999 0.5
319 1 0.7 0.5 0.5
320 1 0.725 0.54999 0.5
321 1 0.75 0.5 0.5
322 1 0.775 0.54999 0.5
323 1 0.8 0.5 0.5
324 1 0.825 0.54999 0.5
325 1 0.85 0.5 0.5
326 1 0.875 0.54999 0.5
327 1 0.9 0.5 0.5
328 1 0.925 0.54999 0.5
329 1 0.95 0.5 0.5
330 1 0.975 0.54999 0.5
331 1 0.5 0.59998 0.5
333 1 0.55 0.59998 0.5
335 1 0.6 0.59998 0.5
337 1 0.65 0.59998 0.5
339 1 0.7 0.59998 0.5
341 1 0.75 0.59998 0.5
343 1 0.8 0.59998 0.5
345 1 0.85 0.59998 0.5
347 1 0.9 0.59998 0.5
349 1 0.95 0.59998 0.5
332 1 0.525 0.64997 0.5
351 1 0.5 0.69996 0.5
353 1 0.55 0.69996 0.5
334 1 0.575 0.64997 0.5
355 1 0.6 0.69996 0.5
336 1 0.625 0.64997 0.5
338 1 0.675 0.64997 0.5
357 1 0.65 0.69996 0.5
340 1 0.725 0.64997 0.5
359 1 0.7 0.69996 0.5
342 1 0.775 0.64997 0.5
361 1 0.75 0.69996 0.5
363 1 0.8 0.69996 0.5
344 1 0.825 0.64997 0.5
365 1 0.85 0.69996 0.5
346 1 0.875 0.64997 0.5
348 1 0.925 0.64997 0.5
367 1 0.9 0.69996 0.5
350 1 0.975 0.64997 0.5
369 1 0.95 0.69996 0.5
352 1 0.525 0.74995 0.5
354 1 0.575 0.74995 0.5
356 1 0.625 0.74995 0.5
358 1 0.675 0.74995 0.5
360 1 0.725 0.74995 0.5
362 1 0.775 0.74995 0.5
364 1 0.825 0.74995 0.5
366 1 0.875 0.74995 0.5
368 1 0.925 0.74995 0.5
370 1 0.975 0.74995 0.5
371 1 0.5 0.79994 0.5
372 1 0.525 0.84993 0.5
373 1 0.55 0.79994 0.5
374 1 0.575 0.84993 0.5
375 1 0.6 0.79994 0.5
376 1 0.625 0.84993 0.5
377 1 0.65 0.79994 0.5
378 1 0.675 0.84993 0.5
379 1 0.7 0.79994 0.5
380 1 0.725 0.84993 0.5
381 1 0.75 0.79994 0.5
382 1 0.775 0.84993 0.5
383 1 0.8 0.79994 0.5
384 1 0.825 0.84993 0.5
385 1 0.85 0.79994 0.5
386 1 0.875 0.84993 0.5
387 1 0.9 0.79994 0.5
388 1 0.925 0.84993 0.5
389 1 0.95 0.79994 0.5
390 1 0.975 0.84993 0.5
391 1 0.5 0.89992 0.5
393 1 0.55 0.89992 0.5
395 1 0.6 0.89992 0.5
397 1 0.65 0.89992 0.5
399 1 0.7 0.89992 0.5
401 1 0.75 0.89992 0.5
403 1 0.8 0.89992 0.5
405 1 0.85 0.89992 0.5
407 1 0.9 0.89992 0.5
409 1 0.95 0.89992 0.5
392 1 0.525 0.94991 0.5
411 1 0.5 0.9999 0.5
412 1 0.55 0.9999 0.5
394 1 0.575 0.94991 0.5
413 1 0.6 0.9999 0.5
396 1 0.625 0.94991 0.5
398 1 0.675 0.94991 0.5
414 1 0.65 0.9999 0.5
400 1 0.725 0.94991 0.5
415 1 0.7 0.9999 0.5
402 1 0.775 0.94991 0.5
416 1 0.75 0.9999 0.5
417 1 0.8 0.9999 0.5
404 1 0.825 0.94991 0.5
418 1 0.85 0.9999 0.5
406 1 0.875 0.94991 0.5
408 1 0.925 0.94991 0.5
419 1 0.9 0.9999 0.5
410 1 0.975 0.94991 0.5
420 1 0.95 0.9999 0.5
ITEM: TIMESTEP
250
ITEM: NUMBER OF ATOMS
420
ITEM: BOX BOUNDS pp ss pp
0.0000000000000000e+00 2.2653923264628304e+01
-1.9618873042551413e-03 2.0175319046359093e+01
-2.8317404080785380e-01 2.8317404080785380e-01
ITEM: ATOMS id type xs ys zs
1 2 0 9.72325e-05 0.5
2 2 0.025 0.0487135 0.5
3 2 0.05 9.72325e-05 0.5
4 2 0.075 0.0487135 0.5
5 2 0.1 9.72325e-05 0.5
6 2 0.125 0.0487135 0.5
7 2 0.15 9.72325e-05 0.5
8 2 0.175 0.0487135 0.5
9 2 0.2 9.72325e-05 0.5
10 2 0.225 0.0487135 0.5
11 2 0.25 9.72325e-05 0.5
12 2 0.275 0.0487135 0.5
13 2 0.3 9.72325e-05 0.5
14 2 0.325 0.0487135 0.5
15 2 0.35 9.72325e-05 0.5
16 2 0.375 0.0487135 0.5
17 2 0.4 9.72325e-05 0.5
18 2 0.425 0.0487135 0.5
19 2 0.45 9.72325e-05 0.5
20 2 0.475 0.0487135 0.5
21 2 0 0.0973297 0.5
23 2 0.05 0.0973297 0.5
25 2 0.1 0.0973297 0.5
27 2 0.15 0.0973297 0.5
29 2 0.2 0.0973297 0.5
31 2 0.25 0.0973297 0.5
33 2 0.3 0.0973297 0.5
35 2 0.35 0.0973297 0.5
37 2 0.4 0.0973297 0.5
39 2 0.45 0.0973297 0.5
22 1 0.0259843 0.144654 0.5
100 1 0.475635 0.434152 0.5
43 1 0.0537805 0.194946 0.5
24 1 0.0769822 0.148046 0.5
45 1 0.102079 0.191628 0.5
26 1 0.124304 0.144855 0.5
28 1 0.18083 0.141946 0.5
47 1 0.149766 0.195649 0.5
30 1 0.22974 0.147519 0.5
49 1 0.199193 0.194851 0.5
32 1 0.276742 0.14868 0.5
51 1 0.248694 0.198011 0.5
53 1 0.30266 0.195599 0.5
34 1 0.326782 0.143695 0.5
55 1 0.351934 0.191788 0.5
36 1 0.375429 0.141095 0.5
38 1 0.426824 0.140972 0.5
57 1 0.404686 0.188062 0.5
40 1 0.477235 0.146652 0.5
59 1 0.449534 0.189607 0.5
42 1 0.0283133 0.241791 0.5
44 1 0.0751907 0.240259 0.5
46 1 0.122737 0.242181 0.5
48 1 0.171752 0.241364 0.5
50 1 0.223486 0.244656 0.5
52 1 0.278067 0.239951 0.5
54 1 0.329538 0.241793 0.5
56 1 0.375793 0.238757 0.5
58 1 0.427762 0.238509 0.5
60 1 0.476084 0.241 0.5
98 1 0.424519 0.435416 0.5
62 1 0.0271345 0.337093 0.5
63 1 0.0500131 0.288904 0.5
64 1 0.0773893 0.340727 0.5
65 1 0.101599 0.293001 0.5
66 1 0.129012 0.344634 0.5
67 1 0.151093 0.293839 0.5
68 1 0.175323 0.341652 0.5
69 1 0.200848 0.292259 0.5
70 1 0.228349 0.336975 0.5
71 1 0.254111 0.289763 0.5
72 1 0.277131 0.340793 0.5
73 1 0.301892 0.290221 0.5
74 1 0.327912 0.340916 0.5
75 1 0.353151 0.289642 0.5
76 1 0.375527 0.335552 0.5
77 1 0.40045 0.289102 0.5
78 1 0.422927 0.339457 0.5
79 1 0.44904 0.288208 0.5
80 1 0.473697 0.340394 0.5
96 1 0.370587 0.440552 0.5
83 1 0.0559763 0.386036 0.5
85 1 0.106341 0.390675 0.5
87 1 0.154452 0.395375 0.5
89 1 0.202039 0.387142 0.5
91 1 0.25337 0.391395 0.5
93 1 0.299311 0.390743 0.5
95 1 0.349548 0.390392 0.5
97 1 0.394957 0.386987 0.5
99 1 0.446152 0.390265 0.5
82 1 0.0272554 0.434191 0.5
84 1 0.0814254 0.436119 0.5
86 1 0.12823 0.445052 0.5
88 1 0.177732 0.443351 0.5
90 1 0.224977 0.433773 0.5
92 1 0.275314 0.442874 0.5
94 1 0.323626 0.438852 0.5
291 1 0.499469 0.388172 0.5
103 1 0.0514913 0.483529 0.5
105 1 0.0991537 0.489585 0.5
107 1 0.151564 0.491687 0.5
109 1 0.201077 0.493393 0.5
113 1 0.29722 0.486917 0.5
115 1 0.348714 0.49085 0.5
117 1 0.399341 0.487544 0.5
119 1 0.448857 0.485999 0.5
81 1 0.00450117 0.383549 0.5
41 1 0.00170799 0.189672 0.5
111 1 0.250254 0.489287 0.5
101 1 0.0014951 0.482681 0.5
61 1 0.00501544 0.289783 0.5
188 1 0.169083 0.933295 0.5
102 1 0.0252607 0.531162 0.5
204 1 0.135491 0.987351 0.5
104 1 0.0724148 0.533072 0.5
196 1 0.374889 0.926288 0.5
106 1 0.122851 0.539127 0.5
208 1 0.345981 0.983532 0.5
108 1 0.176859 0.540554 0.5
194 1 0.327725 0.934187 0.5
110 1 0.224659 0.539424 0.5
331 1 0.495506 0.5754 0.5
112 1 0.272892 0.536457 0.5
207 1 0.296772 0.976664 0.5
114 1 0.324242 0.536417 0.5
206 1 0.245574 0.977359 0.5
116 1 0.374931 0.531923 0.5
192 1 0.27141 0.928719 0.5
118 1 0.424409 0.533874 0.5
205 1 0.193005 0.979321 0.5
120 1 0.474034 0.529402 0.5
210 1 0.447958 0.978509 0.5
123 1 0.0474645 0.580676 0.5
125 1 0.0989963 0.584481 0.5
127 1 0.151503 0.585964 0.5
129 1 0.199164 0.589959 0.5
131 1 0.248175 0.588851 0.5
133 1 0.297677 0.581633 0.5
135 1 0.349767 0.582674 0.5
137 1 0.398172 0.582 0.5
139 1 0.445853 0.580354 0.5
122 1 0.0218371 0.633359 0.5
200 1 0.480897 0.925542 0.5
143 1 0.0495511 0.682802 0.5
124 1 0.0755513 0.632153 0.5
145 1 0.0980926 0.683484 0.5
126 1 0.119816 0.635403 0.5
128 1 0.172205 0.636452 0.5
147 1 0.146915 0.686172 0.5
130 1 0.219937 0.638759 0.5
149 1 0.193667 0.684254 0.5
132 1 0.278656 0.634364 0.5
151 1 0.250602 0.68246 0.5
153 1 0.299585 0.686791 0.5
134 1 0.325876 0.631657 0.5
155 1 0.349508 0.682752 0.5
136 1 0.375566 0.633921 0.5
138 1 0.425445 0.632742 0.5
157 1 0.401834 0.67864 0.5
140 1 0.470668 0.626011 0.5
159 1 0.453126 0.67689 0.5
142 1 0.0238945 0.733313 0.5
144 1 0.0739694 0.732224 0.5
146 1 0.122475 0.734925 0.5
148 1 0.171207 0.739527 0.5
150 1 0.224341 0.727434 0.5
152 1 0.27302 0.733858 0.5
154 1 0.328937 0.735277 0.5
156 1 0.380192 0.730842 0.5
158 1 0.431317 0.725137 0.5
160 1 0.482244 0.725602 0.5
190 1 0.220304 0.927769 0.5
162 1 0.0217107 0.832354 0.5
163 1 0.0456879 0.779457 0.5
164 1 0.0722385 0.829717 0.5
165 1 0.0940622 0.78067 0.5
166 1 0.119812 0.83491 0.5
167 1 0.144889 0.784569 0.5
168 1 0.169956 0.834596 0.5
169 1 0.200004 0.785457 0.5
170 1 0.220686 0.835465 0.5
171 1 0.246683 0.781929 0.5
172 1 0.269138 0.833885 0.5
173 1 0.303256 0.782974 0.5
174 1 0.320412 0.832552 0.5
175 1 0.35661 0.783703 0.5
176 1 0.373387 0.833106 0.5
177 1 0.407672 0.776726 0.5
178 1 0.430246 0.825016 0.5
179 1 0.455973 0.777479 0.5
180 1 0.477926 0.827788 0.5
209 1 0.395398 0.971229 0.5
183 1 0.045135 0.885129 0.5
185 1 0.0936079 0.881705 0.5
187 1 0.143137 0.879435 0.5
189 1 0.192909 0.883801 0.5
191 1 0.245815 0.883018 0.5
193 1 0.296201 0.882078 0.5
195 1 0.348892 0.881554 0.5
197 1 0.407094 0.876076 0.5
199 1 0.454539 0.874947 0.5
182 1 0.0190247 0.931735 0.5
198 1 0.424948 0.92669 0.5
202 1 0.0375047 0.981551 0.5
184 1 0.0663423 0.934868 0.5
203 1 0.0841774 0.999574 0.5
186 1 0.116735 0.930496 0.5
211 2 0.5 9.72325e-05 0.5
212 2 0.525 0.0487135 0.5
213 2 0.55 9.72325e-05 0.5
214 2 0.575 0.0487135 0.5
215 2 0.6 9.72325e-05 0.5
216 2 0.625 0.0487135 0.5
217 2 0.65 9.72325e-05 0.5
218 2 0.675 0.0487135 0.5
219 2 0.7 9.72325e-05 0.5
220 2 0.725 0.0487135 0.5
221 2 0.75 9.72325e-05 0.5
222 2 0.775 0.0487135 0.5
223 2 0.8 9.72325e-05 0.5
224 2 0.825 0.0487135 0.5
225 2 0.85 9.72325e-05 0.5
226 2 0.875 0.0487135 0.5
227 2 0.9 9.72325e-05 0.5
228 2 0.925 0.0487135 0.5
229 2 0.95 9.72325e-05 0.5
230 2 0.975 0.0487135 0.5
231 2 0.5 0.0973297 0.5
233 2 0.55 0.0973297 0.5
235 2 0.6 0.0973297 0.5
237 2 0.65 0.0973297 0.5
239 2 0.7 0.0973297 0.5
241 2 0.75 0.0973297 0.5
243 2 0.8 0.0973297 0.5
245 2 0.85 0.0973297 0.5
247 2 0.9 0.0973297 0.5
249 2 0.95 0.0973297 0.5
232 1 0.528364 0.146039 0.5
251 1 0.502644 0.194757 0.5
253 1 0.552386 0.197818 0.5
234 1 0.578875 0.144727 0.5
255 1 0.60236 0.196412 0.5
236 1 0.62473 0.14267 0.5
238 1 0.674758 0.143656 0.5
257 1 0.65018 0.196331 0.5
240 1 0.725072 0.143301 0.5
259 1 0.70036 0.192848 0.5
242 1 0.77226 0.147439 0.5
261 1 0.746992 0.193719 0.5
263 1 0.795347 0.195274 0.5
244 1 0.821323 0.14648 0.5
265 1 0.844425 0.195373 0.5
246 1 0.870174 0.149199 0.5
248 1 0.922591 0.144627 0.5
267 1 0.895602 0.195812 0.5
250 1 0.973292 0.146222 0.5
269 1 0.94726 0.194225 0.5
252 1 0.523695 0.244498 0.5
254 1 0.576701 0.244851 0.5
256 1 0.626664 0.243539 0.5
258 1 0.675103 0.246676 0.5
260 1 0.722514 0.244278 0.5
262 1 0.770661 0.244289 0.5
264 1 0.820213 0.244661 0.5
266 1 0.875141 0.247011 0.5
268 1 0.924494 0.243552 0.5
270 1 0.974591 0.240526 0.5
317 1 0.651923 0.488926 0.5
272 1 0.526957 0.340485 0.5
273 1 0.553034 0.29323 0.5
274 1 0.576327 0.343043 0.5
275 1 0.602809 0.295508 0.5
276 1 0.629137 0.346462 0.5
277 1 0.651935 0.293801 0.5
278 1 0.675549 0.346328 0.5
279 1 0.700327 0.291764 0.5
280 1 0.725347 0.341049 0.5
281 1 0.749019 0.293722 0.5
282 1 0.778225 0.342555 0.5
283 1 0.797402 0.293248 0.5
284 1 0.824131 0.339731 0.5
285 1 0.845644 0.288954 0.5
286 1 0.87761 0.333525 0.5
287 1 0.905689 0.292916 0.5
288 1 0.931562 0.338826 0.5
289 1 0.954424 0.289862 0.5
290 1 0.978306 0.338628 0.5
327 1 0.903496 0.481876 0.5
293 1 0.551511 0.388509 0.5
295 1 0.60275 0.393279 0.5
297 1 0.65194 0.396339 0.5
299 1 0.704412 0.394136 0.5
301 1 0.753168 0.396512 0.5
303 1 0.798569 0.395455 0.5
305 1 0.846281 0.388117 0.5
307 1 0.898486 0.38023 0.5
309 1 0.954266 0.386141 0.5
292 1 0.525895 0.435556 0.5
294 1 0.576339 0.437741 0.5
296 1 0.624434 0.44249 0.5
298 1 0.676474 0.440098 0.5
300 1 0.728163 0.442983 0.5
302 1 0.780415 0.443008 0.5
304 1 0.828684 0.440929 0.5
306 1 0.87484 0.433194 0.5
308 1 0.926564 0.434567 0.5
310 1 0.977159 0.436491 0.5
319 1 0.701311 0.487905 0.5
271 1 0.502085 0.29639 0.5
329 1 0.950704 0.481022 0.5
325 1 0.85178 0.485299 0.5
313 1 0.548576 0.4843 0.5
315 1 0.600534 0.488184 0.5
321 1 0.751825 0.491501 0.5
323 1 0.80196 0.488481 0.5
311 1 0.500265 0.479051 0.5
201 1 0.989193 0.976818 0.5
312 1 0.519572 0.529876 0.5
181 1 0.99466 0.877972 0.5
314 1 0.570265 0.53376 0.5
418 1 0.846709 0.999901 0.5
316 1 0.626741 0.539856 0.5
417 1 0.799282 0.971748 0.5
318 1 0.678375 0.532891 0.5
416 1 0.752395 0.985646 0.5
320 1 0.724911 0.533712 0.5
121 1 0.999451 0.581782 0.5
322 1 0.777148 0.5355 0.5
419 1 0.89578 0.996462 0.5
324 1 0.825925 0.535543 0.5
408 1 0.91629 0.930351 0.5
326 1 0.877568 0.533595 0.5
161 1 0.998054 0.781268 0.5
328 1 0.927683 0.529385 0.5
406 1 0.871048 0.950119 0.5
330 1 0.977976 0.531348 0.5
404 1 0.825132 0.920862 0.5
333 1 0.541522 0.576258 0.5
335 1 0.596287 0.580874 0.5
337 1 0.651039 0.584479 0.5
339 1 0.701752 0.582799 0.5
341 1 0.752438 0.583732 0.5
343 1 0.800728 0.582414 0.5
345 1 0.85242 0.583975 0.5
347 1 0.899415 0.581817 0.5
349 1 0.9512 0.579427 0.5
332 1 0.525382 0.630025 0.5
420 1 0.940506 0.97827 0.5
353 1 0.5523 0.675742 0.5
334 1 0.573725 0.627016 0.5
355 1 0.601306 0.676116 0.5
336 1 0.619507 0.629268 0.5
338 1 0.680385 0.634167 0.5
357 1 0.650303 0.675357 0.5
340 1 0.728018 0.633198 0.5
359 1 0.704123 0.67887 0.5
342 1 0.778059 0.634437 0.5
361 1 0.752926 0.679267 0.5
363 1 0.8018 0.679727 0.5
344 1 0.825392 0.629401 0.5
365 1 0.851324 0.678562 0.5
346 1 0.873892 0.629882 0.5
348 1 0.924587 0.630166 0.5
367 1 0.901192 0.677768 0.5
350 1 0.974648 0.629599 0.5
369 1 0.949058 0.679568 0.5
352 1 0.530605 0.728999 0.5
354 1 0.577923 0.725989 0.5
356 1 0.625105 0.7249 0.5
358 1 0.675331 0.722683 0.5
360 1 0.72966 0.727151 0.5
362 1 0.775837 0.726018 0.5
364 1 0.82681 0.730721 0.5
366 1 0.874032 0.730631 0.5
368 1 0.923105 0.724903 0.5
370 1 0.971308 0.729203 0.5
371 1 0.505336 0.774459 0.5
372 1 0.527653 0.821582 0.5
373 1 0.55378 0.775667 0.5
374 1 0.577382 0.824575 0.5
375 1 0.602112 0.77423 0.5
376 1 0.626502 0.8214 0.5
377 1 0.650297 0.774578 0.5
378 1 0.677819 0.821607 0.5
379 1 0.699909 0.775827 0.5
380 1 0.726421 0.821368 0.5
381 1 0.749567 0.774669 0.5
382 1 0.774527 0.825911 0.5
383 1 0.802995 0.781057 0.5
384 1 0.82568 0.825312 0.5
385 1 0.850641 0.77727 0.5
386 1 0.873492 0.827484 0.5
387 1 0.90155 0.776821 0.5
388 1 0.922408 0.826275 0.5
389 1 0.950713 0.776357 0.5
390 1 0.970681 0.829186 0.5
391 1 0.504354 0.874882 0.5
393 1 0.552698 0.871059 0.5
395 1 0.603379 0.872435 0.5
397 1 0.652248 0.873515 0.5
399 1 0.700382 0.877008 0.5
401 1 0.750332 0.872785 0.5
403 1 0.803692 0.872807 0.5
405 1 0.850183 0.875649 0.5
407 1 0.898956 0.880098 0.5
409 1 0.946686 0.875664 0.5
392 1 0.531645 0.932979 0.5
410 1 0.964795 0.927571 0.5
412 1 0.560521 0.983094 0.5
394 1 0.578314 0.917572 0.5
413 1 0.604195 0.962512 0.5
396 1 0.628849 0.920465 0.5
398 1 0.679534 0.929393 0.5
414 1 0.649601 0.97467 0.5
400 1 0.7281 0.92631 0.5
415 1 0.70286 0.980902 0.5
402 1 0.775699 0.923046 0.5
351 1 0.502527 0.676521 0.5
411 1 0.503431 0.977848 0.5
141 1 0.995963 0.680903 0.5
ITEM: TIMESTEP
500
ITEM: NUMBER OF ATOMS
420
ITEM: BOX BOUNDS pp ss pp
0.0000000000000000e+00 2.2653923264628304e+01
-1.9618873042551413e-03 2.0105233705224496e+01
-2.8317404080785380e-01 2.8317404080785380e-01
ITEM: ATOMS id type xs ys zs
1 2 0 9.75714e-05 0.5
2 2 0.025 0.0488833 0.5
3 2 0.05 9.75714e-05 0.5
4 2 0.075 0.0488833 0.5
5 2 0.1 9.75714e-05 0.5
6 2 0.125 0.0488833 0.5
7 2 0.15 9.75714e-05 0.5
8 2 0.175 0.0488833 0.5
9 2 0.2 9.75714e-05 0.5
10 2 0.225 0.0488833 0.5
11 2 0.25 9.75714e-05 0.5
12 2 0.275 0.0488833 0.5
13 2 0.3 9.75714e-05 0.5
14 2 0.325 0.0488833 0.5
15 2 0.35 9.75714e-05 0.5
16 2 0.375 0.0488833 0.5
17 2 0.4 9.75714e-05 0.5
18 2 0.425 0.0488833 0.5
19 2 0.45 9.75714e-05 0.5
20 2 0.475 0.0488833 0.5
21 2 0 0.097669 0.5
23 2 0.05 0.097669 0.5
25 2 0.1 0.097669 0.5
27 2 0.15 0.097669 0.5
29 2 0.2 0.097669 0.5
31 2 0.25 0.097669 0.5
33 2 0.3 0.097669 0.5
35 2 0.35 0.097669 0.5
37 2 0.4 0.097669 0.5
39 2 0.45 0.097669 0.5
22 1 0.0253325 0.149043 0.5
100 1 0.475731 0.442883 0.5
43 1 0.0520064 0.196904 0.5
24 1 0.079207 0.145917 0.5
45 1 0.100524 0.193473 0.5
26 1 0.125134 0.144705 0.5
28 1 0.175034 0.143634 0.5
47 1 0.151379 0.195643 0.5
30 1 0.226409 0.144322 0.5
49 1 0.199954 0.190583 0.5
32 1 0.274279 0.145794 0.5
51 1 0.250438 0.194205 0.5
53 1 0.296907 0.196182 0.5
34 1 0.324513 0.14296 0.5
55 1 0.347576 0.195633 0.5
36 1 0.374088 0.147986 0.5
38 1 0.423737 0.148332 0.5
57 1 0.39695 0.196233 0.5
40 1 0.472564 0.144375 0.5
59 1 0.449501 0.195511 0.5
42 1 0.0235869 0.244478 0.5
44 1 0.0769571 0.248526 0.5
46 1 0.126798 0.241634 0.5
48 1 0.176277 0.246266 0.5
50 1 0.223455 0.24143 0.5
52 1 0.275233 0.248118 0.5
54 1 0.322221 0.243738 0.5
56 1 0.372957 0.243963 0.5
58 1 0.423468 0.241504 0.5
60 1 0.470965 0.243259 0.5
98 1 0.426175 0.440573 0.5
62 1 0.0246978 0.343517 0.5
63 1 0.0491613 0.297463 0.5
64 1 0.0746955 0.342333 0.5
65 1 0.0994025 0.295091 0.5
66 1 0.125361 0.344213 0.5
67 1 0.151141 0.293325 0.5
68 1 0.173069 0.340289 0.5
69 1 0.20164 0.293013 0.5
70 1 0.227157 0.344042 0.5
71 1 0.248974 0.294899 0.5
72 1 0.274083 0.343372 0.5
73 1 0.297149 0.295498 0.5
74 1 0.322359 0.34355 0.5
75 1 0.349907 0.290692 0.5
76 1 0.373965 0.341202 0.5
77 1 0.401243 0.294292 0.5
78 1 0.422869 0.344545 0.5
79 1 0.450019 0.292925 0.5
80 1 0.474463 0.341783 0.5
96 1 0.376562 0.438306 0.5
83 1 0.0505905 0.389414 0.5
85 1 0.0991483 0.391931 0.5
87 1 0.15125 0.391674 0.5
89 1 0.200444 0.392431 0.5
91 1 0.253522 0.391045 0.5
93 1 0.301966 0.391802 0.5
95 1 0.351358 0.388992 0.5
97 1 0.401049 0.391739 0.5
99 1 0.449872 0.393582 0.5
82 1 0.0275392 0.439401 0.5
84 1 0.0760315 0.438789 0.5
86 1 0.122716 0.441712 0.5
88 1 0.171622 0.439434 0.5
90 1 0.225131 0.43897 0.5
92 1 0.276276 0.439527 0.5
94 1 0.328307 0.437675 0.5
291 1 0.497779 0.390604 0.5
103 1 0.0534513 0.486616 0.5
105 1 0.101098 0.490645 0.5
107 1 0.151097 0.48916 0.5
109 1 0.201403 0.489358 0.5
113 1 0.302 0.488421 0.5
115 1 0.351899 0.486926 0.5
117 1 0.401575 0.489237 0.5
119 1 0.45171 0.493427 0.5
81 1 0.00235463 0.392362 0.5
41 1 0.00258494 0.196526 0.5
111 1 0.249811 0.486226 0.5
101 1 0.00241969 0.49172 0.5
251 1 0.497267 0.195117 0.5
311 1 0.499186 0.490735 0.5
188 1 0.174401 0.938115 0.5
102 1 0.0248643 0.537314 0.5
204 1 0.148139 0.98681 0.5
104 1 0.075034 0.538754 0.5
196 1 0.372174 0.930607 0.5
106 1 0.12452 0.540008 0.5
208 1 0.346782 0.981122 0.5
108 1 0.17481 0.537111 0.5
194 1 0.323604 0.932306 0.5
110 1 0.223771 0.54061 0.5
141 1 0.00289064 0.688118 0.5
112 1 0.276236 0.533807 0.5
207 1 0.293824 0.980465 0.5
114 1 0.325324 0.539139 0.5
206 1 0.24611 0.982825 0.5
116 1 0.374849 0.537072 0.5
192 1 0.272972 0.932843 0.5
118 1 0.427965 0.539659 0.5
205 1 0.198874 0.988948 0.5
120 1 0.477485 0.541546 0.5
210 1 0.448424 0.977605 0.5
123 1 0.0522994 0.585305 0.5
125 1 0.102847 0.58879 0.5
127 1 0.150538 0.585737 0.5
129 1 0.199421 0.587253 0.5
131 1 0.25158 0.586464 0.5
133 1 0.300384 0.586812 0.5
135 1 0.348905 0.587905 0.5
137 1 0.401899 0.586148 0.5
139 1 0.449616 0.588509 0.5
122 1 0.0262523 0.641902 0.5
200 1 0.475167 0.929298 0.5
143 1 0.0539615 0.687922 0.5
124 1 0.0792385 0.634555 0.5
145 1 0.100866 0.685022 0.5
126 1 0.130522 0.638109 0.5
128 1 0.177262 0.63519 0.5
147 1 0.152094 0.690592 0.5
130 1 0.224556 0.636946 0.5
149 1 0.199647 0.68561 0.5
132 1 0.274953 0.63671 0.5
151 1 0.249365 0.683928 0.5
153 1 0.300643 0.689212 0.5
134 1 0.322865 0.639571 0.5
155 1 0.34981 0.688458 0.5
136 1 0.372617 0.633979 0.5
138 1 0.423953 0.636066 0.5
157 1 0.397202 0.689219 0.5
140 1 0.475836 0.637525 0.5
159 1 0.447862 0.688108 0.5
142 1 0.0269402 0.736957 0.5
144 1 0.0751403 0.736765 0.5
146 1 0.12684 0.738028 0.5
148 1 0.175264 0.739638 0.5
150 1 0.224747 0.7384 0.5
152 1 0.272949 0.734742 0.5
154 1 0.322537 0.741152 0.5
156 1 0.372615 0.736932 0.5
158 1 0.423004 0.736342 0.5
160 1 0.472867 0.737872 0.5
190 1 0.223208 0.934532 0.5
162 1 0.0228007 0.833618 0.5
163 1 0.0496963 0.784287 0.5
164 1 0.0735312 0.83582 0.5
165 1 0.0994658 0.786588 0.5
166 1 0.124944 0.836362 0.5
167 1 0.14845 0.788929 0.5
168 1 0.173759 0.836699 0.5
169 1 0.199338 0.785983 0.5
170 1 0.223435 0.836857 0.5
171 1 0.246981 0.787358 0.5
172 1 0.273872 0.836593 0.5
173 1 0.299859 0.788769 0.5
174 1 0.323243 0.835519 0.5
175 1 0.350333 0.787286 0.5
176 1 0.371936 0.837165 0.5
177 1 0.400052 0.786377 0.5
178 1 0.422914 0.833893 0.5
179 1 0.44684 0.786822 0.5
180 1 0.47128 0.834187 0.5
209 1 0.401342 0.981845 0.5
183 1 0.0478704 0.886832 0.5
185 1 0.0998764 0.886551 0.5
187 1 0.14941 0.885249 0.5
189 1 0.196358 0.889264 0.5
191 1 0.247715 0.88613 0.5
193 1 0.299285 0.884628 0.5
195 1 0.349809 0.882922 0.5
197 1 0.398205 0.881186 0.5
199 1 0.446637 0.881971 0.5
182 1 0.019559 0.934874 0.5
198 1 0.421464 0.929131 0.5
202 1 0.0445156 0.98214 0.5
184 1 0.0695689 0.936062 0.5
203 1 0.0951636 0.984922 0.5
186 1 0.123858 0.936485 0.5
351 1 0.498474 0.685137 0.5
371 1 0.497019 0.785555 0.5
121 1 0.0050671 0.590907 0.5
331 1 0.499877 0.588893 0.5
391 1 0.496406 0.878527 0.5
211 2 0.5 9.75714e-05 0.5
212 2 0.525 0.0488833 0.5
213 2 0.55 9.75714e-05 0.5
214 2 0.575 0.0488833 0.5
215 2 0.6 9.75714e-05 0.5
216 2 0.625 0.0488833 0.5
217 2 0.65 9.75714e-05 0.5
218 2 0.675 0.0488833 0.5
219 2 0.7 9.75714e-05 0.5
220 2 0.725 0.0488833 0.5
221 2 0.75 9.75714e-05 0.5
222 2 0.775 0.0488833 0.5
223 2 0.8 9.75714e-05 0.5
224 2 0.825 0.0488833 0.5
225 2 0.85 9.75714e-05 0.5
226 2 0.875 0.0488833 0.5
227 2 0.9 9.75714e-05 0.5
228 2 0.925 0.0488833 0.5
229 2 0.95 9.75714e-05 0.5
230 2 0.975 0.0488833 0.5
231 2 0.5 0.097669 0.5
233 2 0.55 0.097669 0.5
235 2 0.6 0.097669 0.5
237 2 0.65 0.097669 0.5
239 2 0.7 0.097669 0.5
241 2 0.75 0.097669 0.5
243 2 0.8 0.097669 0.5
245 2 0.85 0.097669 0.5
247 2 0.9 0.097669 0.5
249 2 0.95 0.097669 0.5
232 1 0.522719 0.145085 0.5
321 1 0.750346 0.481855 0.5
253 1 0.548322 0.194763 0.5
234 1 0.573646 0.14661 0.5
255 1 0.602239 0.191813 0.5
236 1 0.626072 0.146551 0.5
238 1 0.677849 0.144877 0.5
257 1 0.652346 0.193281 0.5
240 1 0.728521 0.145357 0.5
259 1 0.704133 0.196527 0.5
242 1 0.777278 0.144547 0.5
261 1 0.752855 0.193427 0.5
263 1 0.801383 0.193136 0.5
244 1 0.826052 0.145329 0.5
265 1 0.851398 0.193419 0.5
246 1 0.874526 0.144498 0.5
248 1 0.924998 0.14571 0.5
267 1 0.902341 0.194367 0.5
250 1 0.976567 0.146906 0.5
269 1 0.95322 0.194968 0.5
252 1 0.525331 0.241701 0.5
254 1 0.575529 0.239091 0.5
256 1 0.62357 0.239544 0.5
258 1 0.674241 0.241148 0.5
260 1 0.727816 0.242617 0.5
262 1 0.779357 0.240885 0.5
264 1 0.827925 0.241507 0.5
266 1 0.875998 0.244286 0.5
268 1 0.924625 0.242892 0.5
270 1 0.976861 0.243425 0.5
317 1 0.651263 0.483689 0.5
272 1 0.525322 0.341884 0.5
273 1 0.548983 0.291928 0.5
274 1 0.574454 0.340434 0.5
275 1 0.597466 0.288518 0.5
276 1 0.622573 0.337564 0.5
277 1 0.648837 0.292475 0.5
278 1 0.672944 0.342113 0.5
279 1 0.697251 0.291186 0.5
280 1 0.726889 0.339079 0.5
281 1 0.755578 0.287274 0.5
282 1 0.774511 0.33954 0.5
283 1 0.802859 0.290331 0.5
284 1 0.827819 0.340202 0.5
285 1 0.852352 0.29078 0.5
286 1 0.876089 0.34026 0.5
287 1 0.90104 0.293723 0.5
288 1 0.924849 0.340849 0.5
289 1 0.951249 0.293694 0.5
290 1 0.9758 0.3471 0.5
327 1 0.902101 0.487254 0.5
293 1 0.545993 0.389328 0.5
295 1 0.596324 0.389481 0.5
297 1 0.643069 0.384398 0.5
299 1 0.699297 0.383413 0.5
301 1 0.749088 0.386069 0.5
303 1 0.804353 0.387767 0.5
305 1 0.853944 0.390431 0.5
307 1 0.900639 0.388355 0.5
309 1 0.953322 0.394472 0.5
292 1 0.5241 0.437452 0.5