ITEM: TIMESTEP
19500
ITEM: NUMBER OF ATOMS
420
ITEM: BOX BOUNDS pp ss pp
0.0000000000000000e+00 2.2653923264628304e+01
-1.9618873042551413e-03 2.0022052229179788e+01
-2.8317404080785380e-01 2.8317404080785380e-01
ITEM: ATOMS id type xs ys zs
1 2 0 9.79767e-05 0.5
2 2 0.025 0.0490863 0.5
3 2 0.05 9.79767e-05 0.5
4 2 0.075 0.0490863 0.5
5 2 0.1 9.79767e-05 0.5
6 2 0.125 0.0490863 0.5
7 2 0.15 9.79767e-05 0.5
8 2 0.175 0.0490863 0.5
9 2 0.2 9.79767e-05 0.5
10 2 0.225 0.0490863 0.5
11 2 0.25 9.79767e-05 0.5
12 2 0.275 0.0490863 0.5
13 2 0.3 9.79767e-05 0.5
14 2 0.325 0.0490863 0.5
15 2 0.35 9.79767e-05 0.5
16 2 0.375 0.0490863 0.5
17 2 0.4 9.79767e-05 0.5
18 2 0.425 0.0490863 0.5
19 2 0.45 9.79767e-05 0.5
20 2 0.475 0.0490863 0.5
21 2 0 0.0980747 0.5
23 2 0.05 0.0980747 0.5
25 2 0.1 0.0980747 0.5
27 2 0.15 0.0980747 0.5
29 2 0.2 0.0980747 0.5
31 2 0.25 0.0980747 0.5
33 2 0.3 0.0980747 0.5
35 2 0.35 0.0980747 0.5
37 2 0.4 0.0980747 0.5
39 2 0.45 0.0980747 0.5
22 1 0.0211725 0.146137 0.5
43 1 0.0477636 0.191105 0.5
100 1 0.460298 0.433858 0.5
24 1 0.0748666 0.144924 0.5
45 1 0.0990564 0.191335 0.5
26 1 0.124286 0.142637 0.5
28 1 0.173711 0.145556 0.5
47 1 0.146751 0.19183 0.5
30 1 0.222477 0.144018 0.5
49 1 0.198697 0.191431 0.5
51 1 0.248604 0.191054 0.5
32 1 0.274145 0.143735 0.5
53 1 0.296649 0.192205 0.5
34 1 0.324371 0.144019 0.5
55 1 0.348842 0.190587 0.5
36 1 0.373398 0.145463 0.5
38 1 0.423227 0.143944 0.5
57 1 0.399898 0.193321 0.5
40 1 0.474196 0.145506 0.5
59 1 0.448817 0.190817 0.5
42 1 0.0227091 0.239185 0.5
63 1 0.0444903 0.286103 0.5
44 1 0.0719398 0.238026 0.5
46 1 0.120026 0.237471 0.5
65 1 0.0943911 0.282659 0.5
48 1 0.169564 0.236009 0.5
67 1 0.144188 0.281517 0.5
50 1 0.222263 0.23909 0.5
69 1 0.193419 0.282297 0.5
71 1 0.244744 0.284691 0.5
52 1 0.27053 0.238107 0.5
73 1 0.296112 0.286731 0.5
54 1 0.320512 0.239794 0.5
56 1 0.371321 0.239193 0.5
75 1 0.34651 0.287735 0.5
58 1 0.424273 0.239112 0.5
60 1 0.473014 0.238097 0.5
62 1 0.0221823 0.336956 0.5
119 1 0.434512 0.479796 0.5
64 1 0.069543 0.333139 0.5
66 1 0.118592 0.328986 0.5
68 1 0.167058 0.328434 0.5
70 1 0.216452 0.329919 0.5
72 1 0.266035 0.332644 0.5
74 1 0.317534 0.337562 0.5
76 1 0.369342 0.33375 0.5
77 1 0.394534 0.286634 0.5
78 1 0.419256 0.33523 0.5
79 1 0.443983 0.28691 0.5
80 1 0.468149 0.334859 0.5
311 1 0.483275 0.481911 0.5
117 1 0.38744 0.478442 0.5
83 1 0.0479599 0.383502 0.5
85 1 0.093389 0.377624 0.5
86 1 0.116632 0.421955 0.5
87 1 0.140601 0.375296 0.5
88 1 0.166119 0.420531 0.5
89 1 0.190338 0.375561 0.5
91 1 0.239558 0.378161 0.5
90 1 0.213952 0.422615 0.5
93 1 0.291179 0.381302 0.5
92 1 0.261238 0.424172 0.5
95 1 0.341759 0.383745 0.5
94 1 0.313925 0.427839 0.5
96 1 0.363914 0.432262 0.5
98 1 0.412503 0.430966 0.5
97 1 0.391293 0.382363 0.5
99 1 0.441913 0.383229 0.5
291 1 0.492771 0.382011 0.5
271 1 0.49454 0.286516 0.5
103 1 0.0487065 0.48781 0.5
82 1 0.0250396 0.433432 0.5
105 1 0.0990348 0.497793 0.5
84 1 0.0714368 0.438984 0.5
107 1 0.138193 0.466657 0.5
111 1 0.236175 0.471948 0.5
109 1 0.186094 0.469125 0.5
113 1 0.285295 0.470487 0.5
115 1 0.333607 0.476926 0.5
41 1 -9.42633e-05 0.192761 0.5
81 1 0.00125531 0.385307 0.5
101 1 0.000810911 0.485174 0.5
102 1 0.0183675 0.539133 0.5
104 1 0.0683485 0.540111 0.5
106 1 0.116834 0.549183 0.5
108 1 0.154611 0.514245 0.5
129 1 0.173944 0.561798 0.5
110 1 0.20659 0.51634 0.5
131 1 0.223127 0.564219 0.5
112 1 0.257636 0.519104 0.5
133 1 0.276037 0.565044 0.5
114 1 0.305056 0.520429 0.5
116 1 0.356952 0.523504 0.5
135 1 0.328034 0.567667 0.5
118 1 0.408299 0.527219 0.5
137 1 0.377778 0.57135 0.5
139 1 0.425845 0.578371 0.5
120 1 0.45844 0.530616 0.5
123 1 0.0436608 0.588388 0.5
122 1 0.0170385 0.633922 0.5
332 1 0.497172 0.629691 0.5
124 1 0.0653454 0.639407 0.5
125 1 0.09257 0.594936 0.5
126 1 0.114698 0.646247 0.5
127 1 0.140098 0.599566 0.5
130 1 0.194644 0.60881 0.5
132 1 0.246014 0.609678 0.5
134 1 0.296185 0.612875 0.5
136 1 0.343445 0.619381 0.5
138 1 0.396869 0.623646 0.5
140 1 0.449836 0.627228 0.5
331 1 0.475138 0.579002 0.5
143 1 0.0355149 0.685875 0.5
145 1 0.0856329 0.689941 0.5
128 1 0.163685 0.649971 0.5
147 1 0.13517 0.696059 0.5
149 1 0.183901 0.701348 0.5
151 1 0.215066 0.656989 0.5
152 1 0.233731 0.706529 0.5
153 1 0.264631 0.659843 0.5
154 1 0.28238 0.708471 0.5
155 1 0.311498 0.662751 0.5
157 1 0.363254 0.667547 0.5
156 1 0.329403 0.710284 0.5
159 1 0.414996 0.675322 0.5
158 1 0.381912 0.715468 0.5
351 1 0.466447 0.679479 0.5
160 1 0.429816 0.725725 0.5
352 1 0.478604 0.731304 0.5
142 1 0.00688731 0.733354 0.5
163 1 0.0288716 0.781586 0.5
144 1 0.0578931 0.739385 0.5
146 1 0.104781 0.744511 0.5
165 1 0.076444 0.788861 0.5
148 1 0.153114 0.747351 0.5
150 1 0.204256 0.750938 0.5
173 1 0.25215 0.756578 0.5
175 1 0.300191 0.757425 0.5
177 1 0.348299 0.757438 0.5
179 1 0.396933 0.767972 0.5
371 1 0.445785 0.774548 0.5
372 1 0.491486 0.782548 0.5
164 1 0.0444415 0.836679 0.5
166 1 0.09317 0.840897 0.5
167 1 0.124802 0.794136 0.5
168 1 0.142768 0.843294 0.5
169 1 0.172788 0.797238 0.5
171 1 0.221027 0.799939 0.5
170 1 0.191783 0.84702 0.5
174 1 0.271026 0.804701 0.5
172 1 0.240362 0.852271 0.5
195 1 0.286584 0.857128 0.5
176 1 0.321362 0.803364 0.5
197 1 0.334403 0.854697 0.5
178 1 0.366848 0.809163 0.5
180 1 0.414903 0.818102 0.5
199 1 0.382689 0.858428 0.5
391 1 0.460439 0.828297 0.5
200 1 0.429326 0.868683 0.5
183 1 0.0182614 0.880374 0.5
184 1 0.0392754 0.934247 0.5
185 1 0.0667476 0.886364 0.5
187 1 0.117009 0.890613 0.5
189 1 0.163933 0.895256 0.5
191 1 0.211079 0.896829 0.5
193 1 0.257896 0.903436 0.5
196 1 0.305453 0.904451 0.5
198 1 0.352785 0.902638 0.5
210 1 0.397301 0.907533 0.5
411 1 0.477643 0.879224 0.5
202 1 0.0109637 0.977733 0.5
186 1 0.0879069 0.937669 0.5
203 1 0.0589743 0.98976 0.5
204 1 0.107989 0.995253 0.5
188 1 0.135458 0.942225 0.5
205 1 0.155454 0.99414 0.5
190 1 0.182548 0.946512 0.5
206 1 0.202473 0.998398 0.5
192 1 0.231739 0.95003 0.5
207 1 0.252527 1.00111 0.5
194 1 0.279535 0.950298 0.5
208 1 0.298499 0.999715 0.5
209 1 0.330569 0.951889 0.5
211 2 0.5 9.79767e-05 0.5
212 2 0.525 0.0490863 0.5
213 2 0.55 9.79767e-05 0.5
214 2 0.575 0.0490863 0.5
215 2 0.6 9.79767e-05 0.5
216 2 0.625 0.0490863 0.5
217 2 0.65 9.79767e-05 0.5
218 2 0.675 0.0490863 0.5
219 2 0.7 9.79767e-05 0.5
220 2 0.725 0.0490863 0.5
221 2 0.75 9.79767e-05 0.5
222 2 0.775 0.0490863 0.5
223 2 0.8 9.79767e-05 0.5
224 2 0.825 0.0490863 0.5
225 2 0.85 9.79767e-05 0.5
226 2 0.875 0.0490863 0.5
227 2 0.9 9.79767e-05 0.5
228 2 0.925 0.0490863 0.5
229 2 0.95 9.79767e-05 0.5
230 2 0.975 0.0490863 0.5
231 2 0.5 0.0980747 0.5
233 2 0.55 0.0980747 0.5
235 2 0.6 0.0980747 0.5
237 2 0.65 0.0980747 0.5
239 2 0.7 0.0980747 0.5
241 2 0.75 0.0980747 0.5
243 2 0.8 0.0980747 0.5
245 2 0.85 0.0980747 0.5
247 2 0.9 0.0980747 0.5
249 2 0.95 0.0980747 0.5
232 1 0.525222 0.144915 0.5
253 1 0.549576 0.195047 0.5
310 1 0.976605 0.433629 0.5
234 1 0.575421 0.146275 0.5
236 1 0.625701 0.146069 0.5
255 1 0.598863 0.19728 0.5
238 1 0.674277 0.148931 0.5
257 1 0.64854 0.196633 0.5
240 1 0.723806 0.148856 0.5
259 1 0.697113 0.198759 0.5
261 1 0.747345 0.198122 0.5
242 1 0.773502 0.149011 0.5
263 1 0.79849 0.194732 0.5
244 1 0.824543 0.147734 0.5
265 1 0.85216 0.191548 0.5
246 1 0.87625 0.144108 0.5
248 1 0.925855 0.14521 0.5
267 1 0.901253 0.191926 0.5
250 1 0.973975 0.146595 0.5
269 1 0.952135 0.192742 0.5
252 1 0.521893 0.238831 0.5
254 1 0.572434 0.245208 0.5
256 1 0.621302 0.244367 0.5
258 1 0.672443 0.249952 0.5
260 1 0.722922 0.246061 0.5
262 1 0.773704 0.243952 0.5
283 1 0.805636 0.283832 0.5
264 1 0.829002 0.238339 0.5
285 1 0.855411 0.284305 0.5
266 1 0.877484 0.237328 0.5
268 1 0.926271 0.238292 0.5
287 1 0.904322 0.283805 0.5
270 1 0.97588 0.239949 0.5
289 1 0.950644 0.286561 0.5
273 1 0.544695 0.286976 0.5
272 1 0.518655 0.332849 0.5
275 1 0.5976 0.292788 0.5
274 1 0.568432 0.340413 0.5
276 1 0.617746 0.341847 0.5
277 1 0.644555 0.298087 0.5
278 1 0.669488 0.345764 0.5
279 1 0.698338 0.299562 0.5
281 1 0.746602 0.294768 0.5
280 1 0.71963 0.348892 0.5
282 1 0.78389 0.329475 0.5
284 1 0.832728 0.32999 0.5
286 1 0.880842 0.333097 0.5
288 1 0.93015 0.334441 0.5
290 1 0.97627 0.336408 0.5
293 1 0.541469 0.387693 0.5
295 1 0.591389 0.391966 0.5
297 1 0.641144 0.392114 0.5
299 1 0.688294 0.399094 0.5
300 1 0.733641 0.414346 0.5
301 1 0.760918 0.372975 0.5
303 1 0.809546 0.375573 0.5
302 1 0.784455 0.419192 0.5
305 1 0.856623 0.378639 0.5
304 1 0.832399 0.423952 0.5
307 1 0.905368 0.38382 0.5
308 1 0.92777 0.432386 0.5
306 1 0.878904 0.4255 0.5
309 1 0.953867 0.386439 0.5
292 1 0.509516 0.430648 0.5
313 1 0.531311 0.481192 0.5
294 1 0.561865 0.439265 0.5
315 1 0.57955 0.488559 0.5
296 1 0.612358 0.439993 0.5
298 1 0.658718 0.446543 0.5
317 1 0.629673 0.49356 0.5
319 1 0.705724 0.45495 0.5
321 1 0.755686 0.461478 0.5
323 1 0.804746 0.468191 0.5
325 1 0.853474 0.472044 0.5
327 1 0.902436 0.479399 0.5
329 1 0.949034 0.481179 0.5
251 1 0.500166 0.192316 0.5
61 1 0.997867 0.287861 0.5
318 1 0.679216 0.499913 0.5
312 1 0.504119 0.529691 0.5
314 1 0.551883 0.532631 0.5
316 1 0.599573 0.539455 0.5
337 1 0.648471 0.543616 0.5
162 1 0.997459 0.827735 0.5
320 1 0.728778 0.503702 0.5
339 1 0.702266 0.547867 0.5
341 1 0.751694 0.55343 0.5
322 1 0.778887 0.511488 0.5
343 1 0.801454 0.56178 0.5
324 1 0.827463 0.518664 0.5
345 1 0.848703 0.57139 0.5
326 1 0.874507 0.522287 0.5
328 1 0.922563 0.527749 0.5
347 1 0.89658 0.573389 0.5
330 1 0.972611 0.531459 0.5
333 1 0.525369 0.576432 0.5
334 1 0.544294 0.631513 0.5
201 1 0.964223 0.97076 0.5
335 1 0.57108 0.584603 0.5
355 1 0.593061 0.634815 0.5
336 1 0.619302 0.587922 0.5
338 1 0.6745 0.589687 0.5
340 1 0.725562 0.596368 0.5
342 1 0.773594 0.603365 0.5
344 1 0.821408 0.614231 0.5
346 1 0.870503 0.619599 0.5
348 1 0.917972 0.623776 0.5
349 1 0.943691 0.577524 0.5
350 1 0.967163 0.631641 0.5
353 1 0.514634 0.683777 0.5
354 1 0.564968 0.679299 0.5
357 1 0.648698 0.630666 0.5
356 1 0.624367 0.673805 0.5
358 1 0.671629 0.68074 0.5
359 1 0.697595 0.637454 0.5
360 1 0.718616 0.688433 0.5
361 1 0.745759 0.646646 0.5
363 1 0.792563 0.655589 0.5
362 1 0.765184 0.701102 0.5
365 1 0.842353 0.662706 0.5
364 1 0.812785 0.70849 0.5
366 1 0.863627 0.716543 0.5
367 1 0.89264 0.669346 0.5
369 1 0.939665 0.677657 0.5
141 1 0.989009 0.681377 0.5
373 1 0.526906 0.740783 0.5
121 1 0.992415 0.584813 0.5
375 1 0.598352 0.716232 0.5
374 1 0.572598 0.759469 0.5
376 1 0.621369 0.76857 0.5
377 1 0.645298 0.724766 0.5
378 1 0.667884 0.780355 0.5
379 1 0.691844 0.733275 0.5
381 1 0.74026 0.746779 0.5
383 1 0.788739 0.755206 0.5
385 1 0.835394 0.760379 0.5
368 1 0.912493 0.720653 0.5
387 1 0.884239 0.767188 0.5
370 1 0.959269 0.728239 0.5
389 1 0.930891 0.773809 0.5
161 1 0.980678 0.778822 0.5
393 1 0.539942 0.79535 0.5
392 1 0.505738 0.835595 0.5
394 1 0.557413 0.844345 0.5
395 1 0.590256 0.808892 0.5
397 1 0.636713 0.819217 0.5
399 1 0.684403 0.83225 0.5
380 1 0.713192 0.789738 0.5
401 1 0.730574 0.844299 0.5
382 1 0.759815 0.798599 0.5
384 1 0.806364 0.803641 0.5
403 1 0.778985 0.848566 0.5
386 1 0.854692 0.81217 0.5
405 1 0.827674 0.857899 0.5
388 1 0.901234 0.820736 0.5
390 1 0.949418 0.823113 0.5
412 1 0.526401 0.882975 0.5
396 1 0.606543 0.859248 0.5
413 1 0.572864 0.894307 0.5
414 1 0.622039 0.918607 0.5
398 1 0.651584 0.87403 0.5
400 1 0.69961 0.886617 0.5
402 1 0.749205 0.897403 0.5
404 1 0.797548 0.901828 0.5
406 1 0.844536 0.909745 0.5
407 1 0.874019 0.865319 0.5
408 1 0.893377 0.914593 0.5
409 1 0.922267 0.869993 0.5
410 1 0.941738 0.920745 0.5
181 1 0.969546 0.871537 0.5
182 1 0.990376 0.925483 0.5
415 1 0.669536 0.927926 0.5
416 1 0.716761 0.939973 0.5
417 1 0.766072 0.949385 0.5
418 1 0.818105 0.954599 0.5
419 1 0.865316 0.958879 0.5
420 1 0.91484 0.966806 0.5
