ITEM: TIMESTEP
51750
ITEM: NUMBER OF ATOMS
420
ITEM: BOX BOUNDS pp ss pp
0.0000000000000000e+00 2.2653923264628304e+01
-1.9618873042551413e-03 2.0474568211303485e+01
-2.8317404080785380e-01 2.8317404080785380e-01
ITEM: ATOMS id type xs ys zs
1 2 0 9.58115e-05 0.5
2 2 0.025 0.0480016 0.5
3 2 0.05 9.58115e-05 0.5
4 2 0.075 0.0480016 0.5
5 2 0.1 9.58115e-05 0.5
6 2 0.125 0.0480016 0.5
7 2 0.15 9.58115e-05 0.5
8 2 0.175 0.0480016 0.5
9 2 0.2 9.58115e-05 0.5
10 2 0.225 0.0480016 0.5
11 2 0.25 9.58115e-05 0.5
12 2 0.275 0.0480016 0.5
13 2 0.3 9.58115e-05 0.5
14 2 0.325 0.0480016 0.5
15 2 0.35 9.58115e-05 0.5
16 2 0.375 0.0480016 0.5
17 2 0.4 9.58115e-05 0.5
18 2 0.425 0.0480016 0.5
19 2 0.45 9.58115e-05 0.5
20 2 0.475 0.0480016 0.5
21 2 0 0.0959073 0.5
23 2 0.05 0.0959073 0.5
22 1 0.0270857 0.143955 0.5
25 2 0.1 0.0959073 0.5
24 1 0.0741219 0.140975 0.5
27 2 0.15 0.0959073 0.5
26 1 0.128852 0.14265 0.5
29 2 0.2 0.0959073 0.5
31 2 0.25 0.0959073 0.5
33 2 0.3 0.0959073 0.5
35 2 0.35 0.0959073 0.5
34 1 0.326036 0.140986 0.5
37 2 0.4 0.0959073 0.5
38 1 0.425832 0.142211 0.5
39 2 0.45 0.0959073 0.5
43 1 0.0526491 0.191948 0.5
100 1 0.478562 0.427686 0.5
45 1 0.100768 0.19236 0.5
28 1 0.176359 0.141738 0.5
47 1 0.150205 0.189907 0.5
30 1 0.225842 0.142203 0.5
49 1 0.200557 0.189273 0.5
51 1 0.251638 0.188699 0.5
32 1 0.278177 0.143839 0.5
53 1 0.301635 0.190034 0.5
55 1 0.351575 0.190302 0.5
36 1 0.375019 0.141135 0.5
57 1 0.399632 0.190555 0.5
40 1 0.475137 0.143356 0.5
59 1 0.449474 0.190807 0.5
42 1 0.0257302 0.237543 0.5
63 1 0.0484615 0.286165 0.5
98 1 0.426312 0.427841 0.5
44 1 0.0734601 0.240497 0.5
65 1 0.100215 0.285439 0.5
46 1 0.125039 0.237477 0.5
48 1 0.173868 0.238619 0.5
50 1 0.224442 0.236412 0.5
52 1 0.276066 0.233364 0.5
73 1 0.298443 0.282606 0.5
54 1 0.327013 0.236774 0.5
75 1 0.3494 0.283489 0.5
56 1 0.376028 0.235318 0.5
58 1 0.427269 0.240542 0.5
60 1 0.475488 0.240523 0.5
62 1 0.0274336 0.335911 0.5
64 1 0.0752223 0.331147 0.5
66 1 0.127726 0.331466 0.5
67 1 0.149489 0.283254 0.5
68 1 0.177296 0.329405 0.5
69 1 0.200067 0.284457 0.5
70 1 0.227606 0.331214 0.5
71 1 0.251912 0.28025 0.5
72 1 0.276193 0.330508 0.5
74 1 0.32525 0.327743 0.5
77 1 0.399235 0.285001 0.5
76 1 0.375161 0.333188 0.5
78 1 0.428017 0.330152 0.5
79 1 0.455317 0.289802 0.5
80 1 0.479533 0.339521 0.5
83 1 0.0554849 0.379536 0.5
82 1 0.0311515 0.427956 0.5
119 1 0.451415 0.473039 0.5
85 1 0.104206 0.379256 0.5
84 1 0.0811931 0.424865 0.5
87 1 0.155102 0.378468 0.5
86 1 0.128488 0.424906 0.5
88 1 0.177051 0.423915 0.5
89 1 0.20379 0.377904 0.5
90 1 0.226147 0.424526 0.5
91 1 0.253763 0.380199 0.5
93 1 0.304206 0.378014 0.5
92 1 0.276706 0.42609 0.5
95 1 0.3544 0.381458 0.5
97 1 0.403888 0.379976 0.5
99 1 0.452863 0.383393 0.5
96 1 0.375332 0.429955 0.5
103 1 0.0544432 0.472507 0.5
107 1 0.100929 0.473782 0.5
109 1 0.151879 0.468845 0.5
111 1 0.19985 0.472565 0.5
112 1 0.250421 0.472655 0.5
113 1 0.301758 0.474434 0.5
94 1 0.325966 0.428112 0.5
115 1 0.350498 0.474215 0.5
117 1 0.402095 0.476222 0.5
81 1 0.00282227 0.381597 0.5
41 1 0.000844628 0.190925 0.5
101 1 0.00173464 0.474659 0.5
102 1 0.0287132 0.51887 0.5
104 1 0.0533979 0.566318 0.5
105 1 0.0779931 0.519671 0.5
108 1 0.129489 0.518825 0.5
110 1 0.175587 0.519764 0.5
133 1 0.226318 0.521799 0.5
135 1 0.27511 0.520629 0.5
114 1 0.328393 0.523908 0.5
116 1 0.377839 0.522178 0.5
118 1 0.429004 0.522537 0.5
120 1 0.476593 0.521587 0.5
123 1 0.0272898 0.617346 0.5
121 1 -7.3445e-05 0.568458 0.5
106 1 0.103775 0.565772 0.5
125 1 0.0787105 0.615275 0.5
127 1 0.125412 0.617345 0.5
129 1 0.150853 0.565949 0.5
130 1 0.175691 0.618415 0.5
131 1 0.19963 0.56689 0.5
132 1 0.224453 0.614511 0.5
134 1 0.251255 0.569189 0.5
136 1 0.301219 0.570491 0.5
155 1 0.275232 0.6152 0.5
137 1 0.350312 0.572795 0.5
157 1 0.325507 0.618003 0.5
139 1 0.403272 0.569141 0.5
138 1 0.376333 0.617257 0.5
140 1 0.4283 0.615496 0.5
331 1 0.452905 0.569276 0.5
332 1 0.477812 0.61868 0.5
124 1 0.0522433 0.66273 0.5
143 1 0.0279877 0.709176 0.5
122 1 0.0031487 0.663616 0.5
126 1 0.101978 0.663948 0.5
145 1 0.0769417 0.709233 0.5
147 1 0.12721 0.709912 0.5
128 1 0.150804 0.662551 0.5
151 1 0.199979 0.664412 0.5
153 1 0.249589 0.662012 0.5
156 1 0.300181 0.66153 0.5
158 1 0.350838 0.663878 0.5
159 1 0.398954 0.661889 0.5
351 1 0.450025 0.664444 0.5
352 1 0.473456 0.71221 0.5
144 1 0.051661 0.759426 0.5
209 1 0.351999 0.947927 0.5
146 1 0.0999096 0.758104 0.5
149 1 0.175764 0.711084 0.5
148 1 0.150501 0.756122 0.5
152 1 0.224678 0.711247 0.5
150 1 0.200984 0.758868 0.5
154 1 0.275574 0.709781 0.5
173 1 0.251186 0.757888 0.5
175 1 0.299395 0.756356 0.5
177 1 0.325496 0.708847 0.5
178 1 0.350464 0.75435 0.5
179 1 0.375739 0.708749 0.5
160 1 0.424638 0.710068 0.5
180 1 0.401076 0.756058 0.5
371 1 0.447285 0.761238 0.5
163 1 0.0293243 0.804197 0.5
164 1 0.0547542 0.853443 0.5
162 1 0.005397 0.85343 0.5
165 1 0.0768331 0.807063 0.5
166 1 0.10368 0.853786 0.5
167 1 0.130237 0.802945 0.5
169 1 0.177361 0.805619 0.5
168 1 0.153661 0.853044 0.5
171 1 0.228003 0.80527 0.5
170 1 0.204844 0.84984 0.5
174 1 0.274599 0.805049 0.5
195 1 0.301959 0.850074 0.5
176 1 0.324773 0.802978 0.5
197 1 0.350078 0.85279 0.5
199 1 0.373793 0.803211 0.5
391 1 0.421754 0.805383 0.5
210 1 0.401895 0.853821 0.5
411 1 0.473309 0.809176 0.5
200 1 0.448668 0.856513 0.5
183 1 0.0310045 0.902621 0.5
185 1 0.0800417 0.900706 0.5
187 1 0.131105 0.904688 0.5
189 1 0.180115 0.900872 0.5
191 1 0.228137 0.897311 0.5
172 1 0.251999 0.851216 0.5
193 1 0.279031 0.896876 0.5
196 1 0.327674 0.902285 0.5
198 1 0.376379 0.89763 0.5
184 1 0.0562981 0.947386 0.5
202 1 0.0318642 0.996515 0.5
182 1 0.00763811 0.949278 0.5
203 1 0.0795268 0.99713 0.5
186 1 0.105148 0.948565 0.5
204 1 0.130867 0.995514 0.5
188 1 0.156574 0.947716 0.5
205 1 0.179752 0.993181 0.5
190 1 0.205791 0.946794 0.5
206 1 0.230297 0.993843 0.5
194 1 0.301977 0.952462 0.5
192 1 0.253154 0.941608 0.5
207 1 0.277732 0.999457 0.5
208 1 0.328276 0.996072 0.5
142 1 0.0037081 0.757732 0.5
333 1 0.500359 0.569024 0.5
372 1 0.497826 0.760564 0.5
211 2 0.5 9.58115e-05 0.5
212 2 0.525 0.0480016 0.5
213 2 0.55 9.58115e-05 0.5
214 2 0.575 0.0480016 0.5
215 2 0.6 9.58115e-05 0.5
216 2 0.625 0.0480016 0.5
217 2 0.65 9.58115e-05 0.5
218 2 0.675 0.0480016 0.5
219 2 0.7 9.58115e-05 0.5
220 2 0.725 0.0480016 0.5
221 2 0.75 9.58115e-05 0.5
222 2 0.775 0.0480016 0.5
223 2 0.8 9.58115e-05 0.5
224 2 0.825 0.0480016 0.5
225 2 0.85 9.58115e-05 0.5
226 2 0.875 0.0480016 0.5
227 2 0.9 9.58115e-05 0.5
228 2 0.925 0.0480016 0.5
229 2 0.95 9.58115e-05 0.5
230 2 0.975 0.0480016 0.5
231 2 0.5 0.0959073 0.5
233 2 0.55 0.0959073 0.5
232 1 0.521889 0.147106 0.5
235 2 0.6 0.0959073 0.5
237 2 0.65 0.0959073 0.5
238 1 0.673985 0.14238 0.5
239 2 0.7 0.0959073 0.5
241 2 0.75 0.0959073 0.5
243 2 0.8 0.0959073 0.5
242 1 0.775393 0.14271 0.5
245 2 0.85 0.0959073 0.5
244 1 0.825264 0.14306 0.5
247 2 0.9 0.0959073 0.5
248 1 0.925799 0.144271 0.5
249 2 0.95 0.0959073 0.5
250 1 0.976014 0.143916 0.5
253 1 0.547802 0.191704 0.5
329 1 0.951059 0.476954 0.5
234 1 0.573156 0.142258 0.5
255 1 0.600408 0.190677 0.5
236 1 0.625363 0.14151 0.5
257 1 0.647826 0.191823 0.5
240 1 0.724715 0.144096 0.5
259 1 0.699688 0.190678 0.5
261 1 0.747716 0.189932 0.5
263 1 0.798556 0.190598 0.5
265 1 0.847863 0.192597 0.5
246 1 0.875329 0.142939 0.5
267 1 0.900526 0.189629 0.5
269 1 0.949412 0.192322 0.5
252 1 0.528618 0.242542 0.5
273 1 0.55225 0.288289 0.5
254 1 0.5784 0.239754 0.5
256 1 0.627542 0.241992 0.5
275 1 0.601207 0.288504 0.5
258 1 0.676088 0.236033 0.5
277 1 0.651129 0.288406 0.5
260 1 0.72834 0.238279 0.5
279 1 0.698857 0.284243 0.5
262 1 0.777614 0.236673 0.5
264 1 0.825442 0.238636 0.5
285 1 0.852775 0.283519 0.5
266 1 0.876128 0.238047 0.5
268 1 0.926725 0.242029 0.5
287 1 0.900853 0.289291 0.5
270 1 0.975997 0.238245 0.5
289 1 0.950708 0.287995 0.5
272 1 0.529219 0.334362 0.5
310 1 0.97537 0.430416 0.5
274 1 0.57784 0.334497 0.5
276 1 0.62871 0.334206 0.5
278 1 0.677344 0.331427 0.5
280 1 0.724945 0.334544 0.5
283 1 0.80151 0.28863 0.5
281 1 0.752834 0.285799 0.5
282 1 0.775639 0.335911 0.5
284 1 0.825436 0.337191 0.5
286 1 0.877519 0.33471 0.5
288 1 0.927189 0.338301 0.5
290 1 0.978636 0.334855 0.5
293 1 0.555103 0.381075 0.5
292 1 0.533742 0.428458 0.5
251 1 0.501086 0.197497 0.5
295 1 0.603683 0.379358 0.5
297 1 0.650556 0.383339 0.5
296 1 0.627032 0.430218 0.5
298 1 0.674904 0.430655 0.5
299 1 0.699108 0.380526 0.5
300 1 0.72297 0.429725 0.5
301 1 0.747512 0.383581 0.5
303 1 0.802031 0.382196 0.5
302 1 0.777207 0.429517 0.5
305 1 0.851581 0.383093 0.5
304 1 0.827815 0.428769 0.5
308 1 0.925702 0.432462 0.5
307 1 0.903856 0.38692 0.5
309 1 0.953059 0.383649 0.5
311 1 0.502094 0.472953 0.5
313 1 0.550971 0.477814 0.5
294 1 0.580307 0.42821 0.5
315 1 0.600549 0.476449 0.5
317 1 0.653506 0.481945 0.5
319 1 0.701104 0.479205 0.5
323 1 0.80334 0.475244 0.5
321 1 0.749924 0.479599 0.5
325 1 0.852523 0.478036 0.5
306 1 0.874995 0.431583 0.5
327 1 0.903157 0.479591 0.5
271 1 0.502105 0.289599 0.5
291 1 0.503809 0.382461 0.5
61 1 0.99931 0.285925 0.5
312 1 0.525174 0.524495 0.5
335 1 0.54976 0.569674 0.5
314 1 0.57368 0.523574 0.5
336 1 0.599631 0.572374 0.5
316 1 0.624713 0.528411 0.5
318 1 0.675559 0.528795 0.5
337 1 0.650044 0.573188 0.5
320 1 0.726904 0.524076 0.5
339 1 0.701518 0.574408 0.5
322 1 0.777399 0.527327 0.5
341 1 0.750529 0.573534 0.5
343 1 0.801538 0.574146 0.5
324 1 0.827167 0.523436 0.5
345 1 0.851362 0.571579 0.5
326 1 0.878437 0.523395 0.5
328 1 0.929526 0.524393 0.5
347 1 0.900227 0.571369 0.5
330 1 0.975773 0.52193 0.5
349 1 0.949587 0.570824 0.5
334 1 0.524969 0.615294 0.5
392 1 0.503639 0.854816 0.5
355 1 0.573397 0.61979 0.5
357 1 0.627379 0.62026 0.5
338 1 0.677589 0.621511 0.5
340 1 0.724915 0.623088 0.5
342 1 0.776588 0.620801 0.5
344 1 0.829516 0.62102 0.5
346 1 0.876849 0.617232 0.5
348 1 0.924954 0.617818 0.5
350 1 0.975366 0.614849 0.5
201 1 0.979933 0.994578 0.5
354 1 0.547375 0.665538 0.5
373 1 0.52364 0.713298 0.5
356 1 0.599009 0.66343 0.5
375 1 0.574496 0.71107 0.5
358 1 0.649997 0.667515 0.5
379 1 0.67658 0.715074 0.5
377 1 0.626617 0.713073 0.5
359 1 0.70159 0.670115 0.5
360 1 0.72605 0.714027 0.5
361 1 0.753911 0.66775 0.5
363 1 0.805605 0.664504 0.5
362 1 0.780872 0.714186 0.5
365 1 0.855964 0.667578 0.5
364 1 0.83237 0.71228 0.5
367 1 0.902241 0.664771 0.5
366 1 0.87928 0.715889 0.5
368 1 0.927245 0.711784 0.5
369 1 0.953293 0.661275 0.5
141 1 0.979013 0.707884 0.5
374 1 0.551909 0.759265 0.5
419 1 0.884657 0.992566 0.5
376 1 0.599696 0.755526 0.5
378 1 0.654664 0.760575 0.5
380 1 0.705109 0.761413 0.5
381 1 0.754587 0.762272 0.5
383 1 0.802377 0.760348 0.5
385 1 0.850054 0.759951 0.5
387 1 0.905273 0.760529 0.5
370 1 0.954331 0.756137 0.5
410 1 0.956079 0.947852 0.5
393 1 0.529501 0.807073 0.5
412 1 0.552849 0.856371 0.5
394 1 0.579574 0.80682 0.5
413 1 0.603715 0.852365 0.5
395 1 0.627532 0.804283 0.5
397 1 0.677311 0.808152 0.5
396 1 0.654951 0.856435 0.5
401 1 0.72779 0.809364 0.5
399 1 0.705662 0.857825 0.5
382 1 0.777113 0.810779 0.5
400 1 0.754359 0.859321 0.5
384 1 0.82587 0.809347 0.5
386 1 0.877673 0.806442 0.5
389 1 0.930979 0.804678 0.5
161 1 0.978959 0.805295 0.5
390 1 0.955936 0.855535 0.5
414 1 0.678407 0.902944 0.5
398 1 0.732405 0.905291 0.5
403 1 0.803573 0.858744 0.5
402 1 0.781631 0.9081 0.5
405 1 0.854318 0.852553 0.5
404 1 0.832984 0.901985 0.5
388 1 0.907325 0.850297 0.5
407 1 0.881001 0.89692 0.5
409 1 0.930484 0.89929 0.5
181 1 0.980844 0.902603 0.5
415 1 0.754061 0.954147 0.5
417 1 0.808189 0.95212 0.5
416 1 0.785454 0.99762 0.5
406 1 0.857516 0.947425 0.5
418 1 0.835177 0.995703 0.5
420 1 0.932999 0.998424 0.5
408 1 0.908078 0.945454 0.5
353 1 0.500414 0.665534 0.5
