ITEM: TIMESTEP
29500
ITEM: NUMBER OF ATOMS
420
ITEM: BOX BOUNDS pp ss pp
0.0000000000000000e+00 2.2653923264628304e+01
-1.9618873042551413e-03 2.1498561183962131e+01
-2.8317404080785380e-01 2.8317404080785380e-01
ITEM: ATOMS id type xs ys zs
1 2 0 9.12484e-05 0.5
2 2 0.025 0.0457154 0.5
3 2 0.05 9.12484e-05 0.5
4 2 0.075 0.0457154 0.5
5 2 0.1 9.12484e-05 0.5
6 2 0.125 0.0457154 0.5
7 2 0.15 9.12484e-05 0.5
8 2 0.175 0.0457154 0.5
9 2 0.2 9.12484e-05 0.5
10 2 0.225 0.0457154 0.5
11 2 0.25 9.12484e-05 0.5
12 2 0.275 0.0457154 0.5
13 2 0.3 9.12484e-05 0.5
14 2 0.325 0.0457154 0.5
15 2 0.35 9.12484e-05 0.5
16 2 0.375 0.0457154 0.5
17 2 0.4 9.12484e-05 0.5
18 2 0.425 0.0457154 0.5
19 2 0.45 9.12484e-05 0.5
20 2 0.475 0.0457154 0.5
21 2 0 0.0913396 0.5
23 2 0.05 0.0913396 0.5
22 1 0.0244245 0.135869 0.5
25 2 0.1 0.0913396 0.5
24 1 0.0748222 0.135871 0.5
26 1 0.125965 0.136902 0.5
27 2 0.15 0.0913396 0.5
28 1 0.176383 0.134267 0.5
29 2 0.2 0.0913396 0.5
30 1 0.226756 0.136158 0.5
31 2 0.25 0.0913396 0.5
33 2 0.3 0.0913396 0.5
32 1 0.278135 0.136174 0.5
35 2 0.35 0.0913396 0.5
34 1 0.326667 0.136649 0.5
36 1 0.375482 0.134038 0.5
37 2 0.4 0.0913396 0.5
38 1 0.426115 0.136056 0.5
39 2 0.45 0.0913396 0.5
40 1 0.475987 0.134767 0.5
43 1 0.0511628 0.181371 0.5
45 1 0.101184 0.179659 0.5
47 1 0.150395 0.18056 0.5
49 1 0.201823 0.179608 0.5
51 1 0.252265 0.180489 0.5
53 1 0.30277 0.181315 0.5
55 1 0.351128 0.18046 0.5
57 1 0.400188 0.179449 0.5
59 1 0.450189 0.182029 0.5
311 1 0.484792 0.455891 0.5
42 1 0.0264238 0.224406 0.5
63 1 0.0502725 0.267234 0.5
44 1 0.0740498 0.223974 0.5
65 1 0.10174 0.266563 0.5
46 1 0.125048 0.222741 0.5
48 1 0.177603 0.224038 0.5
67 1 0.150516 0.267574 0.5
50 1 0.225891 0.222931 0.5
69 1 0.199626 0.268519 0.5
71 1 0.249688 0.265999 0.5
52 1 0.277327 0.224029 0.5
73 1 0.301108 0.266918 0.5
54 1 0.327223 0.224379 0.5
75 1 0.350358 0.269896 0.5
56 1 0.375484 0.225831 0.5
58 1 0.42389 0.225671 0.5
77 1 0.399321 0.268715 0.5
60 1 0.475234 0.228265 0.5
79 1 0.44633 0.268492 0.5
41 1 0.000330918 0.179932 0.5
62 1 0.0246344 0.310471 0.5
64 1 0.0739986 0.309399 0.5
66 1 0.124359 0.309809 0.5
85 1 0.0960146 0.352716 0.5
68 1 0.176691 0.310566 0.5
87 1 0.151513 0.353523 0.5
70 1 0.226344 0.311682 0.5
91 1 0.249539 0.358184 0.5
89 1 0.201296 0.355719 0.5
72 1 0.275084 0.311543 0.5
93 1 0.30244 0.360546 0.5
74 1 0.324482 0.314651 0.5
95 1 0.348318 0.362021 0.5
76 1 0.375243 0.315427 0.5
78 1 0.422389 0.314016 0.5
97 1 0.395568 0.3621 0.5
80 1 0.472287 0.316911 0.5
99 1 0.443204 0.360474 0.5
83 1 0.0488584 0.355099 0.5
82 1 0.025995 0.400662 0.5
86 1 0.123832 0.396648 0.5
84 1 0.075313 0.39832 0.5
88 1 0.173313 0.399457 0.5
90 1 0.22174 0.400967 0.5
92 1 0.26964 0.404161 0.5
94 1 0.318497 0.406663 0.5
96 1 0.367764 0.406499 0.5
98 1 0.418216 0.406963 0.5
100 1 0.466024 0.408684 0.5
271 1 0.497066 0.275152 0.5
103 1 0.0493809 0.441678 0.5
105 1 0.0705949 0.483894 0.5
107 1 0.0997071 0.441383 0.5
108 1 0.118721 0.487685 0.5
110 1 0.168997 0.488679 0.5
109 1 0.145552 0.442626 0.5
111 1 0.195712 0.446297 0.5
112 1 0.244416 0.449475 0.5
133 1 0.215785 0.491442 0.5
113 1 0.29348 0.452027 0.5
114 1 0.314883 0.499943 0.5
135 1 0.26623 0.497081 0.5
115 1 0.340704 0.450612 0.5
116 1 0.362176 0.500417 0.5
118 1 0.409879 0.501081 0.5
117 1 0.387636 0.452081 0.5
119 1 0.435974 0.454803 0.5
291 1 0.491525 0.362794 0.5
101 1 0.00341268 0.450625 0.5
120 1 0.457605 0.4993 0.5
104 1 0.0485955 0.547999 0.5
102 1 0.02606 0.498555 0.5
106 1 0.092128 0.528883 0.5
129 1 0.139971 0.53519 0.5
131 1 0.189564 0.536136 0.5
134 1 0.2395 0.538739 0.5
136 1 0.286938 0.542765 0.5
137 1 0.33631 0.548717 0.5
138 1 0.357627 0.594496 0.5
139 1 0.382797 0.546904 0.5
331 1 0.434058 0.545455 0.5
333 1 0.48039 0.546245 0.5
123 1 0.0234237 0.592734 0.5
127 1 0.110722 0.574402 0.5
125 1 0.0730604 0.602362 0.5
128 1 0.125938 0.621001 0.5
130 1 0.160313 0.579127 0.5
151 1 0.177054 0.626441 0.5
132 1 0.207999 0.582807 0.5
153 1 0.225357 0.631003 0.5
155 1 0.256232 0.586705 0.5
157 1 0.305817 0.590133 0.5
156 1 0.278043 0.631477 0.5
159 1 0.374718 0.642409 0.5
140 1 0.405444 0.590785 0.5
351 1 0.422655 0.637379 0.5
332 1 0.45461 0.593717 0.5
353 1 0.475592 0.63797 0.5
208 1 0.240987 0.960414 0.5
124 1 0.0437922 0.643621 0.5
143 1 0.0146559 0.686473 0.5
145 1 0.060247 0.695374 0.5
126 1 0.0905909 0.657092 0.5
147 1 0.108811 0.703357 0.5
149 1 0.14232 0.667611 0.5
152 1 0.192357 0.673286 0.5
154 1 0.240497 0.678019 0.5
177 1 0.292698 0.678252 0.5
158 1 0.325961 0.639366 0.5
179 1 0.340049 0.690533 0.5
160 1 0.387542 0.689632 0.5
352 1 0.451466 0.677219 0.5
371 1 0.426 0.719748 0.5
373 1 0.498744 0.678974 0.5
144 1 0.0309765 0.738753 0.5
146 1 0.0790522 0.745895 0.5
148 1 0.127646 0.751471 0.5
150 1 0.160975 0.714271 0.5
171 1 0.177781 0.761986 0.5
173 1 0.206917 0.719768 0.5
174 1 0.224377 0.767229 0.5
175 1 0.254866 0.725029 0.5
176 1 0.273312 0.773266 0.5
178 1 0.305498 0.735044 0.5
180 1 0.35213 0.742648 0.5
199 1 0.320108 0.785118 0.5
391 1 0.396198 0.759682 0.5
411 1 0.445265 0.766801 0.5
372 1 0.474042 0.720105 0.5
392 1 0.49203 0.766835 0.5
165 1 0.0447813 0.786769 0.5
164 1 0.018409 0.825688 0.5
167 1 0.0936415 0.795536 0.5
166 1 0.0654036 0.835169 0.5
168 1 0.113999 0.841763 0.5
169 1 0.142729 0.798952 0.5
170 1 0.158999 0.851308 0.5
172 1 0.191598 0.811447 0.5
195 1 0.240104 0.815319 0.5
197 1 0.284334 0.824571 0.5
200 1 0.367779 0.799366 0.5
210 1 0.331129 0.83303 0.5
185 1 0.0361277 0.873583 0.5
184 1 0.00511323 0.913148 0.5
187 1 0.084247 0.881555 0.5
189 1 0.130387 0.89121 0.5
191 1 0.178054 0.899045 0.5
193 1 0.206871 0.857389 0.5
194 1 0.224428 0.909851 0.5
209 1 0.271761 0.91993 0.5
196 1 0.252831 0.866062 0.5
198 1 0.29852 0.874371 0.5
203 1 0.0180767 0.964736 0.5
186 1 0.0512354 0.922314 0.5
188 1 0.0981596 0.92833 0.5
204 1 0.0661713 0.97315 0.5
205 1 0.113868 0.974768 0.5
206 1 0.161801 0.990755 0.5
190 1 0.148261 0.937937 0.5
207 1 0.209564 1.0025 0.5
192 1 0.194372 0.951667 0.5
121 1 0.00102378 0.541731 0.5
211 2 0.5 9.12484e-05 0.5
212 2 0.525 0.0457154 0.5
213 2 0.55 9.12484e-05 0.5
214 2 0.575 0.0457154 0.5
215 2 0.6 9.12484e-05 0.5
216 2 0.625 0.0457154 0.5
217 2 0.65 9.12484e-05 0.5
218 2 0.675 0.0457154 0.5
219 2 0.7 9.12484e-05 0.5
220 2 0.725 0.0457154 0.5
221 2 0.75 9.12484e-05 0.5
222 2 0.775 0.0457154 0.5
223 2 0.8 9.12484e-05 0.5
224 2 0.825 0.0457154 0.5
225 2 0.85 9.12484e-05 0.5
226 2 0.875 0.0457154 0.5
227 2 0.9 9.12484e-05 0.5
228 2 0.925 0.0457154 0.5
229 2 0.95 9.12484e-05 0.5
230 2 0.975 0.0457154 0.5
231 2 0.5 0.0913396 0.5
233 2 0.55 0.0913396 0.5
232 1 0.525571 0.140842 0.5
235 2 0.6 0.0913396 0.5
234 1 0.574296 0.135376 0.5
236 1 0.62503 0.136168 0.5
237 2 0.65 0.0913396 0.5
238 1 0.673236 0.137131 0.5
239 2 0.7 0.0913396 0.5
240 1 0.723143 0.135188 0.5
241 2 0.75 0.0913396 0.5
243 2 0.8 0.0913396 0.5
242 1 0.774726 0.136538 0.5
245 2 0.85 0.0913396 0.5
244 1 0.825119 0.135712 0.5
246 1 0.873697 0.136827 0.5
247 2 0.9 0.0913396 0.5
248 1 0.92479 0.134203 0.5
249 2 0.95 0.0913396 0.5
250 1 0.975031 0.13553 0.5
253 1 0.55149 0.182897 0.5
255 1 0.600352 0.181539 0.5
257 1 0.648398 0.181599 0.5
259 1 0.696718 0.181428 0.5
261 1 0.746244 0.180974 0.5
263 1 0.800319 0.179071 0.5
265 1 0.851434 0.179223 0.5
267 1 0.901699 0.181303 0.5
269 1 0.950209 0.180636 0.5
328 1 0.927235 0.491998 0.5
252 1 0.522994 0.226693 0.5
273 1 0.546201 0.276555 0.5
254 1 0.572222 0.231575 0.5
275 1 0.594203 0.274511 0.5
256 1 0.620812 0.227172 0.5
258 1 0.669984 0.229261 0.5
277 1 0.645329 0.275194 0.5
260 1 0.721431 0.227254 0.5
279 1 0.698198 0.269105 0.5
281 1 0.749916 0.269593 0.5
262 1 0.773557 0.223517 0.5
283 1 0.804118 0.26555 0.5
264 1 0.828216 0.223306 0.5
285 1 0.853576 0.267104 0.5
266 1 0.875154 0.224373 0.5
268 1 0.926593 0.225997 0.5
287 1 0.901487 0.268973 0.5
270 1 0.976832 0.223396 0.5
289 1 0.950819 0.267642 0.5
326 1 0.877934 0.489589 0.5
272 1 0.522137 0.319158 0.5
274 1 0.571738 0.321033 0.5
276 1 0.620202 0.320322 0.5
278 1 0.671341 0.317741 0.5
280 1 0.719104 0.315188 0.5
282 1 0.782346 0.307584 0.5
301 1 0.757584 0.351185 0.5
284 1 0.830164 0.308365 0.5
286 1 0.879946 0.312741 0.5
288 1 0.928544 0.312404 0.5
290 1 0.97503 0.31157 0.5
329 1 0.950653 0.446081 0.5
293 1 0.542801 0.36403 0.5
292 1 0.512594 0.413199 0.5
294 1 0.561529 0.411073 0.5
295 1 0.592951 0.365723 0.5
296 1 0.612751 0.412897 0.5
297 1 0.643698 0.367039 0.5
298 1 0.662472 0.418915 0.5
299 1 0.693573 0.364091 0.5
300 1 0.733848 0.391344 0.5
303 1 0.806743 0.35475 0.5
302 1 0.781456 0.397151 0.5
305 1 0.854947 0.354495 0.5
304 1 0.830931 0.398732 0.5
306 1 0.878694 0.399165 0.5
307 1 0.903493 0.35642 0.5
308 1 0.926164 0.401403 0.5
309 1 0.949991 0.359878 0.5
310 1 0.976786 0.404212 0.5
327 1 0.90279 0.445847 0.5
313 1 0.536779 0.457209 0.5
324 1 0.828099 0.486431 0.5
315 1 0.583892 0.457504 0.5
317 1 0.632759 0.462267 0.5
318 1 0.680252 0.474055 0.5
319 1 0.709902 0.433561 0.5
320 1 0.731141 0.480293 0.5
321 1 0.757524 0.439424 0.5
323 1 0.805004 0.44193 0.5
322 1 0.779845 0.483363 0.5
325 1 0.85408 0.445024 0.5
251 1 0.499856 0.181689 0.5
81 1 0.999729 0.358596 0.5
330 1 0.977242 0.494237 0.5
61 1 0.999188 0.267191 0.5
335 1 0.529725 0.545899 0.5
336 1 0.578323 0.550664 0.5
357 1 0.62496 0.551378 0.5
316 1 0.604932 0.504457 0.5
337 1 0.651834 0.511557 0.5
338 1 0.675319 0.559449 0.5
339 1 0.703018 0.520669 0.5
341 1 0.754686 0.526994 0.5
343 1 0.801955 0.532239 0.5
345 1 0.851042 0.53198 0.5
347 1 0.899862 0.536477 0.5
202 1 0.972323 0.957295 0.5
349 1 0.949821 0.535981 0.5
314 1 0.556557 0.502861 0.5
201 1 0.926266 0.95427 0.5
355 1 0.549056 0.593038 0.5
354 1 0.525211 0.635882 0.5
356 1 0.599787 0.596487 0.5
375 1 0.572715 0.638693 0.5
358 1 0.647066 0.601325 0.5
340 1 0.725318 0.56494 0.5
359 1 0.697206 0.604555 0.5
361 1 0.745078 0.612747 0.5
342 1 0.775886 0.572196 0.5
363 1 0.796572 0.617896 0.5
344 1 0.826152 0.576519 0.5
365 1 0.846299 0.622492 0.5
346 1 0.87762 0.579602 0.5
348 1 0.926137 0.584576 0.5
367 1 0.895217 0.626509 0.5
350 1 0.974835 0.587219 0.5
369 1 0.947409 0.630331 0.5
122 1 0.993811 0.638495 0.5
374 1 0.545472 0.679254 0.5
377 1 0.61969 0.645615 0.5
376 1 0.591867 0.686723 0.5
378 1 0.642358 0.692671 0.5
379 1 0.668173 0.646263 0.5
380 1 0.689907 0.693627 0.5
360 1 0.71791 0.653198 0.5
381 1 0.739169 0.698303 0.5
362 1 0.769926 0.656601 0.5
364 1 0.819573 0.662809 0.5
366 1 0.867817 0.667976 0.5
368 1 0.916536 0.673062 0.5
141 1 0.964161 0.680639 0.5
412 1 0.540669 0.767578 0.5
394 1 0.568096 0.728474 0.5
393 1 0.522096 0.722859 0.5
413 1 0.587185 0.778176 0.5
395 1 0.613499 0.731814 0.5
397 1 0.66506 0.736437 0.5
399 1 0.683601 0.783756 0.5
396 1 0.635268 0.776412 0.5
401 1 0.715071 0.740025 0.5
383 1 0.788034 0.704457 0.5
382 1 0.760881 0.746641 0.5
384 1 0.808435 0.75473 0.5
385 1 0.837389 0.711592 0.5
386 1 0.854937 0.757801 0.5
387 1 0.884609 0.715816 0.5
389 1 0.903253 0.759997 0.5
370 1 0.934079 0.720817 0.5
420 1 0.87818 0.95102 0.5
142 1 0.983063 0.728701 0.5
161 1 0.950965 0.769282 0.5
414 1 0.654808 0.823297 0.5
398 1 0.70085 0.833808 0.5
400 1 0.731658 0.788105 0.5
402 1 0.748519 0.837013 0.5
403 1 0.779486 0.798102 0.5
404 1 0.79791 0.847049 0.5
405 1 0.827961 0.802243 0.5
388 1 0.875021 0.807698 0.5
390 1 0.922497 0.811881 0.5
162 1 0.969702 0.815882 0.5
415 1 0.717841 0.879702 0.5
417 1 0.766873 0.88705 0.5
406 1 0.81468 0.894578 0.5
407 1 0.845293 0.850315 0.5
408 1 0.862316 0.898108 0.5
409 1 0.892168 0.855597 0.5
410 1 0.907513 0.907628 0.5
181 1 0.936535 0.861975 0.5
182 1 0.956241 0.908133 0.5
183 1 0.98846 0.865877 0.5
416 1 0.733526 0.928901 0.5
418 1 0.784804 0.934908 0.5
419 1 0.831324 0.94345 0.5
312 1 0.507989 0.501539 0.5
163 1 0.998452 0.778179 0.5
334 1 0.502703 0.590301 0.5
