ITEM: TIMESTEP
12500
ITEM: NUMBER OF ATOMS
420
ITEM: BOX BOUNDS pp ss pp
0.0000000000000000e+00 2.2653923264628304e+01
-1.9618873042551413e-03 1.9292825402080233e+01
-2.8317404080785380e-01 2.8317404080785380e-01
ITEM: ATOMS id type xs ys zs
1 2 0 0.00010168 0.5
2 2 0.025 0.0509415 0.5
3 2 0.05 0.00010168 0.5
4 2 0.075 0.0509415 0.5
5 2 0.1 0.00010168 0.5
6 2 0.125 0.0509415 0.5
7 2 0.15 0.00010168 0.5
8 2 0.175 0.0509415 0.5
9 2 0.2 0.00010168 0.5
10 2 0.225 0.0509415 0.5
11 2 0.25 0.00010168 0.5
12 2 0.275 0.0509415 0.5
13 2 0.3 0.00010168 0.5
14 2 0.325 0.0509415 0.5
15 2 0.35 0.00010168 0.5
16 2 0.375 0.0509415 0.5
17 2 0.4 0.00010168 0.5
18 2 0.425 0.0509415 0.5
19 2 0.45 0.00010168 0.5
20 2 0.475 0.0509415 0.5
21 2 0 0.101781 0.5
23 2 0.05 0.101781 0.5
22 1 0.0224296 0.149873 0.5
25 2 0.1 0.101781 0.5
24 1 0.0752964 0.149957 0.5
26 1 0.126118 0.150246 0.5
27 2 0.15 0.101781 0.5
28 1 0.177631 0.151702 0.5
29 2 0.2 0.101781 0.5
30 1 0.225169 0.153859 0.5
31 2 0.25 0.101781 0.5
33 2 0.3 0.101781 0.5
32 1 0.273192 0.152228 0.5
35 2 0.35 0.101781 0.5
34 1 0.324324 0.149779 0.5
36 1 0.375549 0.14911 0.5
37 2 0.4 0.101781 0.5
38 1 0.424975 0.152796 0.5
39 2 0.45 0.101781 0.5
40 1 0.475036 0.148987 0.5
43 1 0.0521648 0.199234 0.5
42 1 0.0235319 0.247401 0.5
100 1 0.479355 0.442139 0.5
45 1 0.100418 0.199718 0.5
44 1 0.076539 0.248299 0.5
46 1 0.126234 0.250004 0.5
47 1 0.149414 0.200789 0.5
48 1 0.174937 0.252909 0.5
49 1 0.19895 0.204044 0.5
50 1 0.226898 0.251832 0.5
51 1 0.25156 0.203359 0.5
53 1 0.302761 0.201779 0.5
52 1 0.27707 0.250518 0.5
55 1 0.351384 0.19898 0.5
56 1 0.378345 0.248923 0.5
54 1 0.330097 0.25144 0.5
57 1 0.401126 0.200338 0.5
58 1 0.425272 0.249691 0.5
59 1 0.451145 0.198426 0.5
60 1 0.476789 0.249952 0.5
119 1 0.452802 0.490279 0.5
63 1 0.0497008 0.296096 0.5
65 1 0.102645 0.300817 0.5
67 1 0.148862 0.298972 0.5
69 1 0.198091 0.30272 0.5
71 1 0.25369 0.298192 0.5
73 1 0.301821 0.296935 0.5
75 1 0.35264 0.297863 0.5
77 1 0.400469 0.299557 0.5
79 1 0.449119 0.29827 0.5
81 1 0.000582339 0.398117 0.5
62 1 0.0247411 0.349759 0.5
83 1 0.0507715 0.396733 0.5
64 1 0.0747099 0.347284 0.5
85 1 0.100458 0.400426 0.5
66 1 0.124167 0.350023 0.5
68 1 0.172418 0.350229 0.5
87 1 0.148228 0.401038 0.5
70 1 0.228061 0.348535 0.5
89 1 0.19907 0.397824 0.5
91 1 0.24972 0.40067 0.5
72 1 0.277 0.347977 0.5
93 1 0.301465 0.39529 0.5
74 1 0.325793 0.346699 0.5
95 1 0.350744 0.394805 0.5
76 1 0.377926 0.34855 0.5
78 1 0.425892 0.347256 0.5
97 1 0.401424 0.395789 0.5
80 1 0.477658 0.346263 0.5
99 1 0.451346 0.395469 0.5
101 1 0.00153502 0.495521 0.5
103 1 0.0512647 0.494887 0.5
82 1 0.0257438 0.445068 0.5
105 1 0.0998311 0.497507 0.5
84 1 0.0754045 0.447451 0.5
86 1 0.124552 0.448329 0.5
88 1 0.175161 0.447723 0.5
107 1 0.148774 0.495868 0.5
90 1 0.22269 0.446266 0.5
111 1 0.249141 0.493013 0.5
109 1 0.19734 0.495515 0.5
113 1 0.297054 0.4965 0.5
92 1 0.276857 0.44589 0.5
94 1 0.324991 0.444282 0.5
115 1 0.348877 0.490808 0.5
98 1 0.426607 0.443266 0.5
96 1 0.377138 0.443579 0.5
117 1 0.400632 0.49136 0.5
61 1 0.000237031 0.301181 0.5
102 1 0.0254156 0.543905 0.5
104 1 0.0736682 0.546235 0.5
106 1 0.122081 0.548435 0.5
108 1 0.171367 0.544531 0.5
110 1 0.221902 0.543271 0.5
112 1 0.275726 0.544352 0.5
114 1 0.323996 0.54068 0.5
116 1 0.374413 0.536717 0.5
118 1 0.42776 0.535418 0.5
120 1 0.478643 0.537779 0.5
123 1 0.0499682 0.593673 0.5
122 1 0.02505 0.643497 0.5
125 1 0.098847 0.596596 0.5
124 1 0.0737801 0.643692 0.5
126 1 0.125072 0.64593 0.5
127 1 0.14829 0.596787 0.5
128 1 0.174439 0.642468 0.5
129 1 0.196656 0.591685 0.5
130 1 0.221334 0.637746 0.5
131 1 0.248235 0.590246 0.5
133 1 0.300268 0.591491 0.5
132 1 0.271724 0.638735 0.5
135 1 0.349706 0.589871 0.5
134 1 0.323346 0.638851 0.5
136 1 0.37277 0.63595 0.5
137 1 0.400597 0.585474 0.5
138 1 0.423259 0.634663 0.5
139 1 0.449255 0.586897 0.5
140 1 0.477565 0.636538 0.5
121 1 0.00131865 0.594386 0.5
143 1 0.049848 0.695343 0.5
142 1 0.0277903 0.744512 0.5
141 1 0.00245988 0.695292 0.5
145 1 0.0991235 0.694301 0.5
144 1 0.077128 0.743212 0.5
146 1 0.127081 0.745899 0.5
147 1 0.150275 0.693832 0.5
148 1 0.177404 0.743475 0.5
149 1 0.198285 0.690268 0.5
150 1 0.224557 0.737635 0.5
151 1 0.247564 0.688493 0.5
153 1 0.297074 0.687928 0.5
152 1 0.272384 0.73843 0.5
155 1 0.346162 0.68575 0.5
154 1 0.321653 0.736498 0.5
156 1 0.371482 0.732842 0.5
157 1 0.398785 0.684858 0.5
158 1 0.425606 0.7323 0.5
159 1 0.449137 0.680565 0.5
160 1 0.475209 0.728456 0.5
163 1 0.0498026 0.797573 0.5
210 1 0.449815 0.963249 0.5
165 1 0.102154 0.794817 0.5
167 1 0.151504 0.794062 0.5
169 1 0.200302 0.793078 0.5
171 1 0.246571 0.78631 0.5
173 1 0.297538 0.784782 0.5
175 1 0.346711 0.784127 0.5
176 1 0.372343 0.829335 0.5
174 1 0.3218 0.835174 0.5
177 1 0.397594 0.778669 0.5
178 1 0.422806 0.824784 0.5
179 1 0.450989 0.777674 0.5
180 1 0.474769 0.824664 0.5
162 1 0.0251363 0.847156 0.5
183 1 0.0484577 0.897244 0.5
161 1 0.00118895 0.794524 0.5
164 1 0.073546 0.845577 0.5
185 1 0.100291 0.898764 0.5
166 1 0.124425 0.849034 0.5
168 1 0.174056 0.846985 0.5
187 1 0.150137 0.897392 0.5
170 1 0.225576 0.840898 0.5
189 1 0.200086 0.897516 0.5
191 1 0.251354 0.893755 0.5
172 1 0.274292 0.837393 0.5
193 1 0.301685 0.886661 0.5
195 1 0.349554 0.878843 0.5
197 1 0.398799 0.873869 0.5
198 1 0.423848 0.919288 0.5
200 1 0.476104 0.915184 0.5
199 1 0.448081 0.872787 0.5
209 1 0.400283 0.975557 0.5
182 1 0.0237669 0.944131 0.5
202 1 0.0501588 0.99866 0.5
184 1 0.0759189 0.948423 0.5
203 1 0.10218 0.996126 0.5
186 1 0.126702 0.946842 0.5
204 1 0.152631 0.995365 0.5
188 1 0.177262 0.947132 0.5
205 1 0.202401 0.995021 0.5
190 1 0.225739 0.946708 0.5
206 1 0.251952 0.995274 0.5
207 1 0.303069 0.99224 0.5
192 1 0.274028 0.942017 0.5
208 1 0.352985 0.987536 0.5
194 1 0.323838 0.938705 0.5
196 1 0.373323 0.928705 0.5
411 1 0.501248 0.960083 0.5
201 1 0.00260617 0.995 0.5
211 2 0.5 0.00010168 0.5
212 2 0.525 0.0509415 0.5
213 2 0.55 0.00010168 0.5
214 2 0.575 0.0509415 0.5
215 2 0.6 0.00010168 0.5
216 2 0.625 0.0509415 0.5
217 2 0.65 0.00010168 0.5
218 2 0.675 0.0509415 0.5
219 2 0.7 0.00010168 0.5
220 2 0.725 0.0509415 0.5
221 2 0.75 0.00010168 0.5
222 2 0.775 0.0509415 0.5
223 2 0.8 0.00010168 0.5
224 2 0.825 0.0509415 0.5
225 2 0.85 0.00010168 0.5
226 2 0.875 0.0509415 0.5
227 2 0.9 0.00010168 0.5
228 2 0.925 0.0509415 0.5
229 2 0.95 0.00010168 0.5
230 2 0.975 0.0509415 0.5
231 2 0.5 0.101781 0.5
233 2 0.55 0.101781 0.5
232 1 0.52488 0.151983 0.5
235 2 0.6 0.101781 0.5
234 1 0.57555 0.149856 0.5
236 1 0.62594 0.150017 0.5
237 2 0.65 0.101781 0.5
238 1 0.676503 0.148757 0.5
239 2 0.7 0.101781 0.5
240 1 0.726625 0.150047 0.5
241 2 0.75 0.101781 0.5
243 2 0.8 0.101781 0.5
242 1 0.776235 0.151022 0.5
245 2 0.85 0.101781 0.5
244 1 0.824072 0.15112 0.5
246 1 0.874867 0.154886 0.5
247 2 0.9 0.101781 0.5
248 1 0.92501 0.150491 0.5
249 2 0.95 0.101781 0.5
250 1 0.97389 0.150106 0.5
253 1 0.552256 0.201408 0.5
252 1 0.5262 0.248669 0.5
255 1 0.601209 0.19885 0.5
254 1 0.577503 0.247709 0.5
256 1 0.627084 0.24521 0.5
257 1 0.652979 0.199571 0.5
258 1 0.677715 0.247671 0.5
259 1 0.704523 0.197917 0.5
260 1 0.728244 0.24787 0.5
261 1 0.753017 0.201058 0.5
263 1 0.801038 0.199805 0.5
262 1 0.77704 0.248519 0.5
265 1 0.851325 0.203626 0.5
264 1 0.825989 0.249284 0.5
266 1 0.876539 0.249013 0.5
267 1 0.902006 0.199423 0.5
268 1 0.926122 0.245986 0.5
269 1 0.949997 0.198379 0.5
270 1 0.975468 0.248785 0.5
273 1 0.552363 0.29662 0.5
275 1 0.602083 0.296481 0.5
277 1 0.649884 0.296153 0.5
279 1 0.702024 0.297603 0.5
281 1 0.752336 0.295786 0.5
283 1 0.800806 0.300597 0.5
285 1 0.851451 0.298401 0.5
287 1 0.902141 0.298254 0.5
289 1 0.950971 0.29907 0.5
310 1 0.975886 0.446437 0.5
272 1 0.527907 0.346196 0.5
293 1 0.554276 0.393624 0.5
274 1 0.577237 0.345177 0.5
295 1 0.604267 0.396082 0.5
276 1 0.627421 0.344303 0.5
278 1 0.676738 0.345257 0.5
297 1 0.652984 0.392741 0.5
280 1 0.727324 0.344819 0.5
299 1 0.704114 0.395172 0.5
301 1 0.752704 0.393963 0.5
282 1 0.778026 0.345688 0.5
303 1 0.802544 0.395602 0.5
284 1 0.828421 0.349287 0.5
305 1 0.852491 0.396857 0.5
286 1 0.87822 0.351332 0.5
288 1 0.929936 0.347242 0.5
307 1 0.905086 0.396378 0.5
290 1 0.977249 0.3495 0.5
309 1 0.95322 0.396612 0.5
329 1 0.949827 0.497587 0.5
292 1 0.529308 0.44258 0.5
313 1 0.553665 0.49199 0.5
294 1 0.578162 0.44142 0.5
315 1 0.604036 0.491028 0.5
296 1 0.629071 0.44481 0.5
298 1 0.679263 0.443275 0.5
317 1 0.655726 0.492875 0.5
300 1 0.729018 0.445308 0.5
319 1 0.707577 0.493734 0.5
321 1 0.755642 0.493745 0.5
302 1 0.778829 0.444633 0.5
323 1 0.803229 0.491514 0.5
304 1 0.82807 0.44433 0.5
325 1 0.851696 0.493797 0.5
306 1 0.879653 0.44387 0.5
308 1 0.928306 0.446742 0.5
327 1 0.900842 0.494022 0.5
251 1 0.500148 0.198903 0.5
291 1 0.501036 0.39229 0.5
271 1 0.503138 0.298058 0.5
311 1 0.504579 0.490233 0.5
41 1 0.999864 0.199135 0.5
312 1 0.528951 0.541483 0.5
333 1 0.553751 0.588867 0.5
314 1 0.578934 0.537859 0.5
316 1 0.630458 0.538337 0.5
318 1 0.680229 0.54156 0.5
320 1 0.732071 0.542152 0.5
322 1 0.77994 0.541243 0.5
324 1 0.82716 0.544448 0.5
326 1 0.876593 0.54281 0.5
328 1 0.92538 0.544874 0.5
330 1 0.976372 0.54691 0.5
332 1 0.528087 0.637241 0.5
335 1 0.603142 0.587092 0.5
334 1 0.579193 0.636337 0.5
336 1 0.629321 0.637193 0.5
337 1 0.654197 0.588476 0.5
338 1 0.680497 0.635507 0.5
339 1 0.705356 0.586828 0.5
340 1 0.727557 0.636458 0.5
341 1 0.755395 0.589707 0.5
343 1 0.802392 0.59343 0.5
342 1 0.776958 0.642804 0.5
345 1 0.853898 0.592811 0.5
344 1 0.828397 0.641073 0.5
346 1 0.876846 0.642349 0.5
347 1 0.902118 0.596121 0.5
348 1 0.930006 0.645028 0.5
349 1 0.950569 0.594452 0.5
350 1 0.977889 0.646287 0.5
420 1 0.949344 0.994767 0.5
353 1 0.555486 0.681661 0.5
352 1 0.525987 0.730888 0.5
351 1 0.500957 0.683051 0.5
355 1 0.604859 0.684872 0.5
354 1 0.577351 0.730982 0.5
357 1 0.654198 0.686546 0.5
356 1 0.630296 0.735117 0.5
358 1 0.679472 0.735981 0.5
359 1 0.705915 0.687329 0.5
360 1 0.729859 0.738283 0.5
361 1 0.753883 0.690862 0.5
363 1 0.807303 0.692779 0.5
362 1 0.779783 0.738192 0.5
365 1 0.8552 0.692463 0.5
364 1 0.830846 0.741888 0.5
366 1 0.879811 0.743606 0.5
367 1 0.904705 0.693927 0.5
368 1 0.927846 0.745941 0.5
369 1 0.952469 0.697664 0.5
370 1 0.977528 0.744602 0.5
373 1 0.553165 0.777603 0.5
372 1 0.527952 0.825434 0.5
331 1 0.501853 0.58762 0.5
375 1 0.60419 0.78032 0.5
374 1 0.57916 0.826645 0.5
377 1 0.654099 0.782285 0.5
376 1 0.628466 0.830292 0.5
379 1 0.703977 0.783805 0.5
381 1 0.753207 0.787016 0.5
383 1 0.805113 0.789491 0.5
385 1 0.854118 0.791956 0.5
387 1 0.904111 0.793955 0.5
389 1 0.950282 0.793891 0.5
393 1 0.553534 0.872754 0.5
392 1 0.527048 0.916253 0.5
371 1 0.49967 0.778463 0.5
395 1 0.604778 0.877291 0.5
394 1 0.579612 0.922262 0.5
378 1 0.676031 0.832395 0.5
397 1 0.653005 0.882197 0.5
380 1 0.727099 0.834056 0.5
399 1 0.702682 0.8835 0.5
401 1 0.753197 0.883158 0.5
382 1 0.778332 0.834897 0.5
403 1 0.802322 0.886617 0.5
384 1 0.827051 0.840062 0.5
405 1 0.852323 0.89102 0.5
386 1 0.87832 0.842192 0.5
388 1 0.927319 0.844702 0.5
407 1 0.900816 0.895622 0.5
390 1 0.976392 0.843032 0.5
409 1 0.947738 0.897831 0.5
412 1 0.549381 0.961835 0.5
391 1 0.503098 0.870222 0.5
413 1 0.597454 0.974351 0.5
396 1 0.628842 0.92854 0.5
398 1 0.678152 0.931844 0.5
414 1 0.649843 0.977442 0.5
415 1 0.69902 0.983893 0.5
400 1 0.724436 0.935886 0.5
416 1 0.748478 0.991772 0.5
417 1 0.796844 0.986342 0.5
402 1 0.773429 0.936846 0.5
418 1 0.843908 0.988109 0.5
404 1 0.822338 0.937078 0.5
408 1 0.923978 0.945666 0.5
419 1 0.893878 0.992391 0.5
406 1 0.873432 0.940787 0.5
410 1 0.976332 0.946106 0.5
181 1 0.998886 0.895771 0.5
