ITEM: TIMESTEP
37250
ITEM: NUMBER OF ATOMS
420
ITEM: BOX BOUNDS pp ss pp
0.0000000000000000e+00 2.2653923264628304e+01
-1.9618873042551413e-03 2.0682350703220241e+01
-2.8317404080785380e-01 2.8317404080785380e-01
ITEM: ATOMS id type xs ys zs
1 2 0 9.4849e-05 0.5
2 2 0.025 0.0475194 0.5
3 2 0.05 9.4849e-05 0.5
4 2 0.075 0.0475194 0.5
5 2 0.1 9.4849e-05 0.5
6 2 0.125 0.0475194 0.5
7 2 0.15 9.4849e-05 0.5
8 2 0.175 0.0475194 0.5
9 2 0.2 9.4849e-05 0.5
10 2 0.225 0.0475194 0.5
11 2 0.25 9.4849e-05 0.5
12 2 0.275 0.0475194 0.5
13 2 0.3 9.4849e-05 0.5
14 2 0.325 0.0475194 0.5
15 2 0.35 9.4849e-05 0.5
16 2 0.375 0.0475194 0.5
17 2 0.4 9.4849e-05 0.5
18 2 0.425 0.0475194 0.5
19 2 0.45 9.4849e-05 0.5
20 2 0.475 0.0475194 0.5
21 2 0 0.0949439 0.5
23 2 0.05 0.0949439 0.5
22 1 0.0245871 0.143404 0.5
25 2 0.1 0.0949439 0.5
26 1 0.123569 0.143844 0.5
27 2 0.15 0.0949439 0.5
29 2 0.2 0.0949439 0.5
30 1 0.222001 0.13956 0.5
31 2 0.25 0.0949439 0.5
33 2 0.3 0.0949439 0.5
35 2 0.35 0.0949439 0.5
34 1 0.326388 0.142425 0.5
37 2 0.4 0.0949439 0.5
38 1 0.42385 0.145189 0.5
39 2 0.45 0.0949439 0.5
40 1 0.475064 0.140715 0.5
43 1 0.0489113 0.191746 0.5
119 1 0.44865 0.471394 0.5
24 1 0.0742931 0.142309 0.5
45 1 0.100558 0.190972 0.5
28 1 0.170857 0.141864 0.5
47 1 0.148093 0.190911 0.5
49 1 0.201323 0.189864 0.5
51 1 0.251251 0.184846 0.5
32 1 0.275787 0.141796 0.5
53 1 0.301652 0.187705 0.5
36 1 0.37614 0.14311 0.5
55 1 0.352391 0.187376 0.5
57 1 0.399072 0.191991 0.5
59 1 0.452194 0.188661 0.5
291 1 0.49618 0.378209 0.5
42 1 0.0256554 0.240387 0.5
63 1 0.0526339 0.286173 0.5
44 1 0.0743541 0.237725 0.5
65 1 0.101411 0.288164 0.5
46 1 0.125164 0.240403 0.5
48 1 0.173943 0.235589 0.5
67 1 0.148993 0.287117 0.5
50 1 0.226699 0.237187 0.5
69 1 0.197569 0.284184 0.5
52 1 0.276039 0.231294 0.5
54 1 0.325253 0.234902 0.5
75 1 0.346195 0.281478 0.5
56 1 0.374955 0.235894 0.5
58 1 0.425808 0.236713 0.5
77 1 0.397288 0.28287 0.5
60 1 0.475411 0.235653 0.5
100 1 0.469786 0.423945 0.5
62 1 0.021554 0.332386 0.5
64 1 0.0742579 0.333916 0.5
66 1 0.127401 0.333029 0.5
68 1 0.174984 0.334168 0.5
70 1 0.223549 0.329528 0.5
71 1 0.248187 0.284202 0.5
73 1 0.297255 0.279944 0.5
72 1 0.273769 0.329833 0.5
74 1 0.324416 0.329313 0.5
76 1 0.370951 0.327436 0.5
78 1 0.421023 0.328971 0.5
79 1 0.447921 0.283779 0.5
80 1 0.473104 0.32778 0.5
83 1 0.0472484 0.381948 0.5
117 1 0.399749 0.469338 0.5
85 1 0.100305 0.38321 0.5
84 1 0.074566 0.428442 0.5
86 1 0.127244 0.430731 0.5
87 1 0.147062 0.381794 0.5
89 1 0.197236 0.381233 0.5
90 1 0.226659 0.42606 0.5
91 1 0.245164 0.378953 0.5
93 1 0.297211 0.377592 0.5
92 1 0.273434 0.425569 0.5
95 1 0.347834 0.376074 0.5
94 1 0.324117 0.422332 0.5
97 1 0.398339 0.374637 0.5
98 1 0.421085 0.422013 0.5
99 1 0.44678 0.374893 0.5
82 1 0.023885 0.429174 0.5
103 1 0.0499958 0.475898 0.5
101 1 -0.000503064 0.478381 0.5
107 1 0.102283 0.478353 0.5
88 1 0.174853 0.428961 0.5
109 1 0.151792 0.47661 0.5
111 1 0.202138 0.473235 0.5
112 1 0.251739 0.472949 0.5
113 1 0.299195 0.471607 0.5
115 1 0.34688 0.476876 0.5
96 1 0.371619 0.423072 0.5
251 1 0.499706 0.188578 0.5
104 1 0.0538721 0.572464 0.5
102 1 0.0261752 0.524676 0.5
121 1 0.00385532 0.570572 0.5
105 1 0.0776123 0.523783 0.5
108 1 0.126702 0.526555 0.5
110 1 0.178257 0.519836 0.5
129 1 0.152722 0.569725 0.5
133 1 0.226509 0.522454 0.5
134 1 0.249482 0.569658 0.5
136 1 0.300504 0.567751 0.5
135 1 0.274952 0.519996 0.5
137 1 0.352112 0.566468 0.5
114 1 0.324225 0.524369 0.5
116 1 0.376838 0.520875 0.5
139 1 0.401326 0.566724 0.5
118 1 0.424994 0.521598 0.5
120 1 0.474249 0.520246 0.5
331 1 0.451841 0.568774 0.5
123 1 0.0304185 0.617782 0.5
106 1 0.102951 0.571244 0.5
125 1 0.0806937 0.618757 0.5
127 1 0.131485 0.617033 0.5
130 1 0.181186 0.616106 0.5
131 1 0.200937 0.568645 0.5
132 1 0.23039 0.616641 0.5
155 1 0.281438 0.615089 0.5
157 1 0.329792 0.614876 0.5
138 1 0.37921 0.610419 0.5
140 1 0.428504 0.613318 0.5
332 1 0.479111 0.613604 0.5
124 1 0.054942 0.665063 0.5
143 1 0.0298084 0.713175 0.5
122 1 0.00537183 0.667206 0.5
145 1 0.0829426 0.714974 0.5
126 1 0.104169 0.668243 0.5
147 1 0.130104 0.710238 0.5
128 1 0.156237 0.661762 0.5
151 1 0.206266 0.661371 0.5
152 1 0.231083 0.707919 0.5
153 1 0.256219 0.660064 0.5
156 1 0.304215 0.664809 0.5
154 1 0.278804 0.709879 0.5
158 1 0.354386 0.663611 0.5
177 1 0.329879 0.709397 0.5
179 1 0.377721 0.709857 0.5
159 1 0.40247 0.664163 0.5
160 1 0.429358 0.711401 0.5
351 1 0.453759 0.662721 0.5
352 1 0.477383 0.714068 0.5
144 1 0.0587232 0.761224 0.5
142 1 0.00737186 0.758827 0.5
146 1 0.1088 0.761339 0.5
149 1 0.180449 0.707255 0.5
148 1 0.156496 0.757367 0.5
150 1 0.206382 0.755622 0.5
173 1 0.254413 0.757192 0.5
175 1 0.30241 0.759013 0.5
178 1 0.354537 0.758953 0.5
180 1 0.402325 0.755935 0.5
371 1 0.451536 0.757393 0.5
163 1 0.0306102 0.806529 0.5
164 1 0.0554061 0.854128 0.5
162 1 0.00608278 0.854132 0.5
165 1 0.0825914 0.809781 0.5
166 1 0.106206 0.854338 0.5
167 1 0.131648 0.808275 0.5
168 1 0.156493 0.855422 0.5
169 1 0.181007 0.804462 0.5
171 1 0.228648 0.80388 0.5
170 1 0.204371 0.85195 0.5
172 1 0.254503 0.852112 0.5
174 1 0.276674 0.807478 0.5
195 1 0.303713 0.854309 0.5
176 1 0.328602 0.809204 0.5
197 1 0.354713 0.85585 0.5
199 1 0.376718 0.808687 0.5
391 1 0.424978 0.806022 0.5
210 1 0.402893 0.854878 0.5
411 1 0.475556 0.808257 0.5
200 1 0.452771 0.855872 0.5
183 1 0.0306361 0.899638 0.5
185 1 0.0815514 0.899132 0.5
187 1 0.131627 0.903203 0.5
189 1 0.182807 0.899201 0.5
191 1 0.232203 0.90083 0.5
193 1 0.27882 0.903789 0.5
196 1 0.327316 0.900582 0.5
198 1 0.378578 0.904329 0.5
182 1 0.00549066 0.945038 0.5
184 1 0.0535216 0.946985 0.5
202 1 0.0308948 0.990239 0.5
203 1 0.0805917 0.994528 0.5
186 1 0.103839 0.9477 0.5
204 1 0.131107 0.993399 0.5
188 1 0.156199 0.948087 0.5
205 1 0.17934 0.994868 0.5
190 1 0.207051 0.948838 0.5
206 1 0.229363 0.997813 0.5
192 1 0.254139 0.951013 0.5
207 1 0.279367 0.999293 0.5
194 1 0.304492 0.950639 0.5
208 1 0.325834 0.99964 0.5
209 1 0.354351 0.950685 0.5
211 2 0.5 9.4849e-05 0.5
212 2 0.525 0.0475194 0.5
213 2 0.55 9.4849e-05 0.5
214 2 0.575 0.0475194 0.5
215 2 0.6 9.4849e-05 0.5
216 2 0.625 0.0475194 0.5
217 2 0.65 9.4849e-05 0.5
218 2 0.675 0.0475194 0.5
219 2 0.7 9.4849e-05 0.5
220 2 0.725 0.0475194 0.5
221 2 0.75 9.4849e-05 0.5
222 2 0.775 0.0475194 0.5
223 2 0.8 9.4849e-05 0.5
224 2 0.825 0.0475194 0.5
225 2 0.85 9.4849e-05 0.5
226 2 0.875 0.0475194 0.5
227 2 0.9 9.4849e-05 0.5
228 2 0.925 0.0475194 0.5
229 2 0.95 9.4849e-05 0.5
230 2 0.975 0.0475194 0.5
231 2 0.5 0.0949439 0.5
233 2 0.55 0.0949439 0.5
235 2 0.6 0.0949439 0.5
236 1 0.622186 0.143311 0.5
237 2 0.65 0.0949439 0.5
239 2 0.7 0.0949439 0.5
240 1 0.723315 0.143053 0.5
241 2 0.75 0.0949439 0.5
243 2 0.8 0.0949439 0.5
242 1 0.775817 0.142528 0.5
245 2 0.85 0.0949439 0.5
247 2 0.9 0.0949439 0.5
246 1 0.873913 0.141457 0.5
248 1 0.921433 0.142024 0.5
249 2 0.95 0.0949439 0.5
232 1 0.523736 0.14224 0.5
253 1 0.548897 0.189859 0.5
234 1 0.575868 0.142333 0.5
255 1 0.599364 0.191755 0.5
238 1 0.674858 0.144653 0.5
257 1 0.65131 0.191854 0.5
259 1 0.70189 0.191356 0.5
261 1 0.750848 0.187783 0.5
263 1 0.798486 0.19427 0.5
244 1 0.82672 0.143613 0.5
265 1 0.850541 0.191665 0.5
267 1 0.900166 0.19093 0.5
250 1 0.973528 0.142873 0.5
269 1 0.947875 0.192905 0.5
252 1 0.52476 0.235513 0.5
273 1 0.550821 0.284904 0.5
254 1 0.57497 0.235994 0.5
256 1 0.628052 0.23885 0.5
275 1 0.598668 0.283663 0.5
258 1 0.677732 0.238048 0.5
277 1 0.649739 0.286755 0.5
260 1 0.726729 0.24084 0.5
279 1 0.700531 0.287606 0.5
281 1 0.749962 0.286534 0.5
262 1 0.773595 0.239977 0.5
283 1 0.798552 0.285803 0.5
264 1 0.825412 0.238833 0.5
285 1 0.849342 0.289481 0.5
266 1 0.873785 0.241117 0.5
268 1 0.921822 0.240479 0.5
270 1 0.973734 0.237389 0.5
272 1 0.525348 0.330688 0.5
274 1 0.576172 0.331669 0.5
276 1 0.622633 0.330123 0.5
278 1 0.671652 0.33788 0.5
280 1 0.724633 0.335778 0.5
282 1 0.775848 0.334805 0.5
284 1 0.822664 0.333743 0.5
286 1 0.873824 0.335237 0.5
287 1 0.89776 0.289096 0.5
288 1 0.922628 0.335361 0.5
329 1 0.951514 0.475199 0.5
289 1 0.946817 0.288047 0.5
290 1 0.973314 0.333412 0.5
310 1 0.975198 0.43013 0.5
293 1 0.548761 0.377788 0.5
292 1 0.521648 0.424631 0.5
294 1 0.572283 0.42598 0.5
295 1 0.597166 0.380349 0.5
296 1 0.622358 0.432286 0.5
297 1 0.645851 0.385723 0.5
298 1 0.674526 0.430563 0.5
299 1 0.696087 0.385202 0.5
300 1 0.723215 0.431947 0.5
301 1 0.746802 0.383486 0.5
303 1 0.797518 0.383511 0.5
305 1 0.849188 0.379631 0.5
307 1 0.897814 0.38176 0.5
309 1 0.949619 0.382571 0.5
313 1 0.549434 0.471924 0.5
311 1 0.498925 0.472457 0.5
315 1 0.600574 0.47636 0.5
317 1 0.649931 0.47746 0.5
319 1 0.701708 0.478905 0.5
321 1 0.748944 0.477381 0.5
323 1 0.800222 0.477106 0.5
302 1 0.774812 0.430677 0.5
325 1 0.852131 0.474817 0.5
306 1 0.876625 0.42821 0.5
304 1 0.825827 0.430316 0.5
308 1 0.924445 0.426979 0.5
327 1 0.902804 0.475394 0.5
61 1 0.999488 0.285583 0.5
41 1 0.998205 0.192248 0.5
271 1 0.499669 0.282808 0.5
81 1 0.998862 0.38175 0.5
312 1 0.525863 0.523198 0.5
335 1 0.553573 0.571386 0.5
333 1 0.50378 0.571366 0.5
314 1 0.574868 0.524697 0.5
336 1 0.599758 0.570555 0.5
316 1 0.624711 0.52574 0.5
337 1 0.647891 0.56961 0.5
318 1 0.675051 0.523862 0.5
320 1 0.727814 0.524013 0.5
339 1 0.701772 0.569785 0.5
343 1 0.801476 0.571559 0.5
322 1 0.777917 0.522444 0.5
324 1 0.826658 0.52188 0.5
326 1 0.88028 0.522881 0.5
328 1 0.929588 0.523768 0.5
349 1 0.953539 0.572683 0.5
330 1 0.979301 0.52529 0.5
334 1 0.528007 0.617646 0.5
355 1 0.576068 0.61948 0.5
357 1 0.625328 0.617954 0.5
338 1 0.680487 0.617461 0.5
340 1 0.729743 0.61945 0.5
341 1 0.751628 0.572804 0.5
342 1 0.777767 0.62111 0.5
345 1 0.851585 0.570963 0.5
344 1 0.827616 0.618537 0.5
347 1 0.899456 0.573479 0.5
346 1 0.875683 0.618572 0.5
348 1 0.930657 0.618066 0.5
350 1 0.979578 0.619572 0.5
373 1 0.524676 0.713468 0.5
354 1 0.552465 0.663369 0.5
353 1 0.501709 0.66518 0.5
356 1 0.600746 0.664756 0.5
375 1 0.574781 0.711599 0.5
377 1 0.626627 0.709199 0.5
358 1 0.655236 0.663749 0.5
379 1 0.675082 0.711127 0.5
359 1 0.703523 0.666802 0.5
360 1 0.726513 0.710186 0.5
361 1 0.753236 0.666823 0.5
363 1 0.804908 0.665926 0.5
362 1 0.777935 0.71611 0.5
365 1 0.853884 0.665704 0.5
364 1 0.83004 0.713776 0.5
366 1 0.880993 0.713212 0.5
367 1 0.905645 0.664031 0.5
368 1 0.929967 0.712505 0.5
369 1 0.954798 0.66666 0.5
372 1 0.50079 0.75999 0.5
374 1 0.551759 0.758618 0.5
376 1 0.601647 0.75646 0.5
378 1 0.652613 0.758769 0.5
380 1 0.701629 0.757004 0.5
381 1 0.751799 0.759511 0.5
383 1 0.80223 0.760505 0.5
385 1 0.855658 0.759873 0.5
387 1 0.906641 0.759904 0.5
141 1 0.97983 0.713023 0.5
370 1 0.955924 0.758879 0.5
393 1 0.525098 0.803734 0.5
412 1 0.555488 0.852301 0.5
392 1 0.504766 0.852147 0.5
394 1 0.577102 0.804403 0.5
413 1 0.606699 0.850333 0.5
395 1 0.626899 0.804351 0.5
397 1 0.674022 0.805248 0.5
396 1 0.655662 0.852745 0.5
401 1 0.72387 0.805054 0.5
399 1 0.704181 0.851024 0.5
400 1 0.752785 0.850819 0.5
382 1 0.779018 0.806206 0.5
403 1 0.803157 0.8535 0.5
384 1 0.830414 0.808663 0.5
405 1 0.855857 0.852248 0.5
386 1 0.882708 0.807506 0.5
389 1 0.932616 0.810097 0.5
388 1 0.907114 0.854353 0.5
161 1 0.980157 0.807629 0.5
390 1 0.957312 0.85516 0.5
414 1 0.682134 0.89699 0.5
398 1 0.732233 0.89913 0.5
402 1 0.781855 0.900241 0.5
404 1 0.831917 0.900062 0.5
407 1 0.881157 0.900498 0.5
409 1 0.930477 0.901891 0.5
181 1 0.978642 0.900881 0.5
415 1 0.756385 0.94462 0.5
417 1 0.806339 0.946687 0.5
416 1 0.780727 0.990476 0.5
406 1 0.85707 0.946268 0.5
418 1 0.831988 0.990338 0.5
420 1 0.931504 0.991243 0.5
419 1 0.882511 0.996066 0.5
408 1 0.904876 0.946716 0.5
201 1 0.979382 0.993894 0.5
410 1 0.955213 0.946887 0.5
