ITEM: TIMESTEP
35250
ITEM: NUMBER OF ATOMS
420
ITEM: BOX BOUNDS pp ss pp
0.0000000000000000e+00 2.2653923264628304e+01
-1.9618873042551413e-03 2.0447429766123498e+01
-2.8317404080785380e-01 2.8317404080785380e-01
ITEM: ATOMS id type xs ys zs
1 2 0 9.59387e-05 0.5
2 2 0.025 0.0480653 0.5
3 2 0.05 9.59387e-05 0.5
4 2 0.075 0.0480653 0.5
5 2 0.1 9.59387e-05 0.5
6 2 0.125 0.0480653 0.5
7 2 0.15 9.59387e-05 0.5
8 2 0.175 0.0480653 0.5
9 2 0.2 9.59387e-05 0.5
10 2 0.225 0.0480653 0.5
11 2 0.25 9.59387e-05 0.5
12 2 0.275 0.0480653 0.5
13 2 0.3 9.59387e-05 0.5
14 2 0.325 0.0480653 0.5
15 2 0.35 9.59387e-05 0.5
16 2 0.375 0.0480653 0.5
17 2 0.4 9.59387e-05 0.5
18 2 0.425 0.0480653 0.5
19 2 0.45 9.59387e-05 0.5
20 2 0.475 0.0480653 0.5
21 2 0 0.0960346 0.5
23 2 0.05 0.0960346 0.5
22 1 0.0245331 0.14337 0.5
25 2 0.1 0.0960346 0.5
24 1 0.0731737 0.145263 0.5
26 1 0.120787 0.147298 0.5
27 2 0.15 0.0960346 0.5
28 1 0.170484 0.14636 0.5
29 2 0.2 0.0960346 0.5
31 2 0.25 0.0960346 0.5
33 2 0.3 0.0960346 0.5
32 1 0.272499 0.143687 0.5
35 2 0.35 0.0960346 0.5
34 1 0.321198 0.146101 0.5
36 1 0.371146 0.143134 0.5
37 2 0.4 0.0960346 0.5
39 2 0.45 0.0960346 0.5
43 1 0.0470163 0.191432 0.5
117 1 0.403968 0.470068 0.5
45 1 0.0955449 0.195194 0.5
47 1 0.147313 0.194559 0.5
30 1 0.222333 0.145499 0.5
49 1 0.198263 0.191372 0.5
51 1 0.248932 0.191892 0.5
53 1 0.295967 0.191212 0.5
55 1 0.347929 0.19156 0.5
38 1 0.425697 0.143365 0.5
57 1 0.399553 0.18815 0.5
40 1 0.473723 0.142659 0.5
59 1 0.450015 0.188804 0.5
42 1 0.0198154 0.238944 0.5
63 1 0.0440716 0.287522 0.5
44 1 0.0730646 0.240517 0.5
65 1 0.0976404 0.287894 0.5
46 1 0.122702 0.239134 0.5
48 1 0.172925 0.239041 0.5
67 1 0.147614 0.285188 0.5
50 1 0.222364 0.234974 0.5
69 1 0.196901 0.282737 0.5
71 1 0.249979 0.28373 0.5
52 1 0.272583 0.237913 0.5
73 1 0.301058 0.281875 0.5
54 1 0.322648 0.235755 0.5
75 1 0.351868 0.283651 0.5
56 1 0.374487 0.235764 0.5
58 1 0.425446 0.234101 0.5
77 1 0.399993 0.276896 0.5
60 1 0.474907 0.235169 0.5
79 1 0.447489 0.282592 0.5
62 1 0.0222975 0.334207 0.5
64 1 0.075098 0.334383 0.5
66 1 0.125922 0.333076 0.5
68 1 0.174454 0.329715 0.5
70 1 0.22307 0.330378 0.5
72 1 0.274265 0.32955 0.5
74 1 0.325531 0.32927 0.5
76 1 0.37556 0.330519 0.5
78 1 0.425606 0.329337 0.5
80 1 0.476113 0.328059 0.5
83 1 0.0490053 0.381359 0.5
82 1 0.0243997 0.427804 0.5
119 1 0.45112 0.469607 0.5
85 1 0.0992116 0.381059 0.5
84 1 0.0737535 0.427789 0.5
86 1 0.125642 0.428027 0.5
87 1 0.148161 0.381124 0.5
88 1 0.173746 0.425345 0.5
89 1 0.198138 0.375756 0.5
90 1 0.222601 0.421735 0.5
91 1 0.249961 0.375658 0.5
93 1 0.299729 0.378362 0.5
92 1 0.271525 0.425474 0.5
95 1 0.348074 0.376652 0.5
94 1 0.322753 0.425435 0.5
96 1 0.374752 0.424285 0.5
97 1 0.398893 0.377957 0.5
98 1 0.426207 0.423414 0.5
99 1 0.451791 0.375266 0.5
100 1 0.474837 0.423902 0.5
103 1 0.0495278 0.474132 0.5
107 1 0.0983675 0.473789 0.5
109 1 0.151196 0.472215 0.5
111 1 0.197513 0.473313 0.5
112 1 0.247153 0.47151 0.5
113 1 0.299668 0.474112 0.5
115 1 0.350489 0.468966 0.5
81 1 -0.000609917 0.380042 0.5
101 1 -0.0001843 0.472696 0.5
291 1 0.500333 0.376818 0.5
271 1 0.499525 0.283508 0.5
104 1 0.0498221 0.565764 0.5
102 1 0.0273069 0.518023 0.5
106 1 0.0987756 0.567337 0.5
105 1 0.0785184 0.520965 0.5
108 1 0.125275 0.518234 0.5
110 1 0.174049 0.519892 0.5
129 1 0.149343 0.565818 0.5
131 1 0.197194 0.566773 0.5
133 1 0.222686 0.518389 0.5
134 1 0.248964 0.564646 0.5
136 1 0.298869 0.567617 0.5
135 1 0.274757 0.51835 0.5
137 1 0.352203 0.561827 0.5
116 1 0.37718 0.517029 0.5
114 1 0.326436 0.517069 0.5
139 1 0.40097 0.562966 0.5
118 1 0.42709 0.516324 0.5
120 1 0.477067 0.516329 0.5
331 1 0.450959 0.563444 0.5
123 1 0.0243152 0.617033 0.5
125 1 0.0736164 0.615076 0.5
127 1 0.122331 0.61152 0.5
130 1 0.170937 0.617617 0.5
132 1 0.222933 0.61625 0.5
155 1 0.272488 0.610743 0.5
157 1 0.326399 0.610961 0.5
138 1 0.373821 0.613986 0.5
140 1 0.424427 0.61355 0.5
332 1 0.474035 0.611442 0.5
124 1 0.0484754 0.661771 0.5
143 1 0.0251458 0.710872 0.5
145 1 0.0739095 0.707805 0.5
126 1 0.0973638 0.663317 0.5
147 1 0.123188 0.711563 0.5
128 1 0.1456 0.662398 0.5
149 1 0.172798 0.707943 0.5
151 1 0.197868 0.662047 0.5
152 1 0.222821 0.707008 0.5
153 1 0.250274 0.662774 0.5
156 1 0.300043 0.657975 0.5
154 1 0.271813 0.709005 0.5
158 1 0.348065 0.662506 0.5
177 1 0.321918 0.710114 0.5
179 1 0.371269 0.706946 0.5
159 1 0.398804 0.66011 0.5
160 1 0.422745 0.708301 0.5
351 1 0.447281 0.659545 0.5
352 1 0.470671 0.709294 0.5
353 1 0.495388 0.659521 0.5
144 1 0.0504484 0.755573 0.5
209 1 0.349302 0.943897 0.5
146 1 0.0995673 0.760778 0.5
148 1 0.151789 0.758176 0.5
150 1 0.200014 0.753646 0.5
173 1 0.247119 0.755685 0.5
175 1 0.295274 0.755419 0.5
178 1 0.347101 0.753272 0.5
180 1 0.396388 0.752725 0.5
371 1 0.44714 0.754842 0.5
372 1 0.49806 0.753571 0.5
163 1 0.0242759 0.80643 0.5
164 1 0.048553 0.851616 0.5
165 1 0.0743977 0.806484 0.5
166 1 0.0991924 0.854022 0.5
167 1 0.123978 0.807322 0.5
168 1 0.147547 0.855461 0.5
169 1 0.175317 0.805427 0.5
171 1 0.222644 0.80525 0.5
172 1 0.247724 0.854384 0.5
170 1 0.200343 0.851598 0.5
174 1 0.270594 0.80438 0.5
195 1 0.295989 0.849287 0.5
176 1 0.323189 0.802132 0.5
199 1 0.371715 0.801765 0.5
197 1 0.347262 0.850385 0.5
391 1 0.420037 0.799698 0.5
210 1 0.396836 0.852023 0.5
411 1 0.470727 0.801881 0.5
200 1 0.446086 0.846088 0.5
392 1 0.494914 0.848039 0.5
183 1 0.0245873 0.90014 0.5
185 1 0.0740108 0.89942 0.5
187 1 0.123852 0.90237 0.5
189 1 0.177516 0.90034 0.5
191 1 0.225176 0.903647 0.5
193 1 0.276759 0.8988 0.5
196 1 0.325027 0.897161 0.5
198 1 0.37716 0.902718 0.5
184 1 0.0465944 0.947229 0.5
202 1 0.0202837 0.994445 0.5
203 1 0.0715429 0.996895 0.5
186 1 0.0970143 0.947217 0.5
204 1 0.120955 0.996652 0.5
188 1 0.147785 0.949399 0.5
205 1 0.172843 0.995324 0.5
190 1 0.196875 0.950467 0.5
206 1 0.224136 0.999753 0.5
207 1 0.271973 0.996367 0.5
194 1 0.298678 0.94707 0.5
192 1 0.250815 0.94933 0.5
208 1 0.323967 0.991808 0.5
142 1 0.00214965 0.755722 0.5
122 1 0.0014015 0.663951 0.5
211 2 0.5 9.59387e-05 0.5
212 2 0.525 0.0480653 0.5
213 2 0.55 9.59387e-05 0.5
214 2 0.575 0.0480653 0.5
215 2 0.6 9.59387e-05 0.5
216 2 0.625 0.0480653 0.5
217 2 0.65 9.59387e-05 0.5
218 2 0.675 0.0480653 0.5
219 2 0.7 9.59387e-05 0.5
220 2 0.725 0.0480653 0.5
221 2 0.75 9.59387e-05 0.5
222 2 0.775 0.0480653 0.5
223 2 0.8 9.59387e-05 0.5
224 2 0.825 0.0480653 0.5
225 2 0.85 9.59387e-05 0.5
226 2 0.875 0.0480653 0.5
227 2 0.9 9.59387e-05 0.5
228 2 0.925 0.0480653 0.5
229 2 0.95 9.59387e-05 0.5
230 2 0.975 0.0480653 0.5
231 2 0.5 0.0960346 0.5
233 2 0.55 0.0960346 0.5
232 1 0.524343 0.143885 0.5
235 2 0.6 0.0960346 0.5
236 1 0.626164 0.145019 0.5
237 2 0.65 0.0960346 0.5
239 2 0.7 0.0960346 0.5
240 1 0.726358 0.139937 0.5
241 2 0.75 0.0960346 0.5
243 2 0.8 0.0960346 0.5
245 2 0.85 0.0960346 0.5
246 1 0.874351 0.143219 0.5
247 2 0.9 0.0960346 0.5
249 2 0.95 0.0960346 0.5
253 1 0.550937 0.189535 0.5
61 1 0.995958 0.285562 0.5
234 1 0.575214 0.140077 0.5
255 1 0.602687 0.188564 0.5
238 1 0.675651 0.141117 0.5
257 1 0.652777 0.188902 0.5
259 1 0.701375 0.18785 0.5
261 1 0.749031 0.189389 0.5
242 1 0.773618 0.142849 0.5
263 1 0.796322 0.19223 0.5
244 1 0.821027 0.146535 0.5
265 1 0.84651 0.19087 0.5
248 1 0.924404 0.142152 0.5
267 1 0.897723 0.188024 0.5
250 1 0.972038 0.14237 0.5
269 1 0.948552 0.189426 0.5
252 1 0.526078 0.236519 0.5
273 1 0.54957 0.283353 0.5
254 1 0.575989 0.237309 0.5
275 1 0.600458 0.28321 0.5
256 1 0.626373 0.235663 0.5
258 1 0.674972 0.235464 0.5
260 1 0.72498 0.238774 0.5
262 1 0.771708 0.238999 0.5
283 1 0.800261 0.284733 0.5
264 1 0.824562 0.236377 0.5
285 1 0.849076 0.285814 0.5
266 1 0.872458 0.238379 0.5
268 1 0.9197 0.235644 0.5
270 1 0.969637 0.235882 0.5
329 1 0.949973 0.475142 0.5
272 1 0.5257 0.330258 0.5
327 1 0.901168 0.476056 0.5
274 1 0.577633 0.32998 0.5
277 1 0.648341 0.285055 0.5
276 1 0.625145 0.333723 0.5
278 1 0.674254 0.32976 0.5
279 1 0.6975 0.282886 0.5
280 1 0.723579 0.333076 0.5
281 1 0.750026 0.287741 0.5
282 1 0.776054 0.332841 0.5
284 1 0.825746 0.332693 0.5
287 1 0.897079 0.287258 0.5
286 1 0.874008 0.331897 0.5
288 1 0.924096 0.333604 0.5
289 1 0.947388 0.284226 0.5
290 1 0.972009 0.331933 0.5
293 1 0.551108 0.375508 0.5
292 1 0.527232 0.426652 0.5
311 1 0.501345 0.472528 0.5
294 1 0.575426 0.426113 0.5
295 1 0.601282 0.380696 0.5
296 1 0.624085 0.428219 0.5
297 1 0.64925 0.380651 0.5
298 1 0.674507 0.427504 0.5
299 1 0.69669 0.378461 0.5
300 1 0.722173 0.425901 0.5
301 1 0.749359 0.378268 0.5
303 1 0.800767 0.377263 0.5
302 1 0.776444 0.423679 0.5
305 1 0.851111 0.379251 0.5
304 1 0.825706 0.425917 0.5
306 1 0.874027 0.42808 0.5
307 1 0.900874 0.378856 0.5
308 1 0.927233 0.430454 0.5
309 1 0.950603 0.381587 0.5
310 1 0.975117 0.427612 0.5
313 1 0.549507 0.475305 0.5
41 1 0.997482 0.189612 0.5
315 1 0.598798 0.476118 0.5
317 1 0.648308 0.476384 0.5
319 1 0.699343 0.475585 0.5
321 1 0.749987 0.471361 0.5
323 1 0.797325 0.473206 0.5
325 1 0.850555 0.4753 0.5
251 1 0.499224 0.189718 0.5
335 1 0.549794 0.568448 0.5
312 1 0.526989 0.519861 0.5
182 1 0.997125 0.945659 0.5
314 1 0.57453 0.521572 0.5
316 1 0.623187 0.524013 0.5
336 1 0.598915 0.57012 0.5
337 1 0.647857 0.569048 0.5
318 1 0.674752 0.52326 0.5
339 1 0.701598 0.572643 0.5
320 1 0.724212 0.524273 0.5
341 1 0.75234 0.569587 0.5
343 1 0.800156 0.569506 0.5
322 1 0.775924 0.522108 0.5
324 1 0.826119 0.523581 0.5
345 1 0.850405 0.570548 0.5
326 1 0.873959 0.522785 0.5
347 1 0.899699 0.568343 0.5
328 1 0.926651 0.523561 0.5
349 1 0.950207 0.56808 0.5
330 1 0.974657 0.520999 0.5
410 1 0.948299 0.947909 0.5
334 1 0.522248 0.61122 0.5
355 1 0.574914 0.617164 0.5
357 1 0.62149 0.616946 0.5
338 1 0.67212 0.617923 0.5
340 1 0.729242 0.616672 0.5
342 1 0.777732 0.615668 0.5
344 1 0.826094 0.61517 0.5
346 1 0.875783 0.616464 0.5
348 1 0.925499 0.614853 0.5
350 1 0.976706 0.615619 0.5
373 1 0.52229 0.708344 0.5
354 1 0.544016 0.659216 0.5
356 1 0.600052 0.662302 0.5
375 1 0.573322 0.707308 0.5
377 1 0.623949 0.710123 0.5
358 1 0.647241 0.661978 0.5
379 1 0.672918 0.712781 0.5
359 1 0.698426 0.666987 0.5
361 1 0.749167 0.66553 0.5
360 1 0.724029 0.711593 0.5
363 1 0.800516 0.662754 0.5
362 1 0.774556 0.710098 0.5
365 1 0.850293 0.6661 0.5
364 1 0.826078 0.708788 0.5
366 1 0.875406 0.710522 0.5
367 1 0.902173 0.661733 0.5
368 1 0.92505 0.709014 0.5
201 1 0.970277 0.997399 0.5
369 1 0.950832 0.664235 0.5
141 1 0.976471 0.710087 0.5
374 1 0.547597 0.753795 0.5
376 1 0.596837 0.755789 0.5
378 1 0.644221 0.759552 0.5
380 1 0.697735 0.757287 0.5
381 1 0.749224 0.757735 0.5
383 1 0.800511 0.755743 0.5
385 1 0.848515 0.755854 0.5
387 1 0.899775 0.757142 0.5
370 1 0.950705 0.754493 0.5
393 1 0.521257 0.800233 0.5
412 1 0.545711 0.845891 0.5
394 1 0.572091 0.80324 0.5
395 1 0.620115 0.80867 0.5
413 1 0.597949 0.858614 0.5
397 1 0.670451 0.804333 0.5
396 1 0.646489 0.854897 0.5
401 1 0.724246 0.803309 0.5
399 1 0.697003 0.849279 0.5
400 1 0.746789 0.848857 0.5
382 1 0.773504 0.802918 0.5
403 1 0.79946 0.847729 0.5
384 1 0.823991 0.803084 0.5
386 1 0.874131 0.80354 0.5
405 1 0.848803 0.852128 0.5
389 1 0.924359 0.802526 0.5
388 1 0.900755 0.848279 0.5
161 1 0.973367 0.800891 0.5
390 1 0.950535 0.849022 0.5
162 1 1.00037 0.853276 0.5
414 1 0.673169 0.899567 0.5
398 1 0.722819 0.897787 0.5
402 1 0.773107 0.893413 0.5
404 1 0.824527 0.896707 0.5
407 1 0.874059 0.897113 0.5
409 1 0.92592 0.897333 0.5
181 1 0.973604 0.898554 0.5
415 1 0.754157 0.941856 0.5
417 1 0.799066 0.941404 0.5
416 1 0.774923 0.989284 0.5
406 1 0.847056 0.945215 0.5
418 1 0.823867 0.991235 0.5
419 1 0.871776 0.993615 0.5
408 1 0.894676 0.946725 0.5
420 1 0.920491 0.994762 0.5
333 1 0.499976 0.566322 0.5
121 1 0.999921 0.565664 0.5
