ITEM: TIMESTEP
55500
ITEM: NUMBER OF ATOMS
420
ITEM: BOX BOUNDS pp ss pp
0.0000000000000000e+00 2.2653923264628304e+01
-1.9618873042551413e-03 2.0528127075371959e+01
-2.8317404080785380e-01 2.8317404080785380e-01
ITEM: ATOMS id type xs ys zs
1 2 0 9.55616e-05 0.5
2 2 0.025 0.0478763 0.5
3 2 0.05 9.55616e-05 0.5
4 2 0.075 0.0478763 0.5
5 2 0.1 9.55616e-05 0.5
6 2 0.125 0.0478763 0.5
7 2 0.15 9.55616e-05 0.5
8 2 0.175 0.0478763 0.5
9 2 0.2 9.55616e-05 0.5
10 2 0.225 0.0478763 0.5
11 2 0.25 9.55616e-05 0.5
12 2 0.275 0.0478763 0.5
13 2 0.3 9.55616e-05 0.5
14 2 0.325 0.0478763 0.5
15 2 0.35 9.55616e-05 0.5
16 2 0.375 0.0478763 0.5
17 2 0.4 9.55616e-05 0.5
18 2 0.425 0.0478763 0.5
19 2 0.45 9.55616e-05 0.5
20 2 0.475 0.0478763 0.5
21 2 0 0.0956571 0.5
23 2 0.05 0.0956571 0.5
22 1 0.0244624 0.142862 0.5
25 2 0.1 0.0956571 0.5
26 1 0.126984 0.143325 0.5
27 2 0.15 0.0956571 0.5
29 2 0.2 0.0956571 0.5
30 1 0.224551 0.142844 0.5
31 2 0.25 0.0956571 0.5
33 2 0.3 0.0956571 0.5
35 2 0.35 0.0956571 0.5
34 1 0.324237 0.141221 0.5
37 2 0.4 0.0956571 0.5
38 1 0.426031 0.142164 0.5
36 1 0.374997 0.1407 0.5
39 2 0.45 0.0956571 0.5
40 1 0.474385 0.143842 0.5
43 1 0.0514398 0.190795 0.5
24 1 0.0743894 0.144085 0.5
45 1 0.0989356 0.189952 0.5
28 1 0.174781 0.142958 0.5
47 1 0.151895 0.190737 0.5
49 1 0.198995 0.189021 0.5
32 1 0.277978 0.143119 0.5
51 1 0.250247 0.189818 0.5
53 1 0.302166 0.189416 0.5
55 1 0.351004 0.187928 0.5
57 1 0.399544 0.187098 0.5
59 1 0.449318 0.189847 0.5
101 1 0.00185127 0.475014 0.5
42 1 0.0261548 0.235549 0.5
63 1 0.0463294 0.283843 0.5
44 1 0.0733808 0.236776 0.5
65 1 0.0980764 0.282514 0.5
46 1 0.124084 0.236214 0.5
48 1 0.175141 0.235989 0.5
67 1 0.1502 0.282309 0.5
50 1 0.225554 0.235137 0.5
69 1 0.199239 0.282211 0.5
52 1 0.274447 0.237127 0.5
73 1 0.300293 0.283086 0.5
54 1 0.324578 0.236329 0.5
75 1 0.349342 0.283112 0.5
56 1 0.373129 0.237414 0.5
58 1 0.423145 0.235542 0.5
60 1 0.472148 0.236098 0.5
79 1 0.44956 0.281963 0.5
119 1 0.447377 0.474084 0.5
62 1 0.0241388 0.333065 0.5
64 1 0.0734141 0.331033 0.5
66 1 0.1229 0.332767 0.5
68 1 0.173911 0.330475 0.5
70 1 0.222616 0.330039 0.5
71 1 0.249528 0.283188 0.5
72 1 0.273396 0.329222 0.5
74 1 0.325364 0.332686 0.5
77 1 0.398275 0.285612 0.5
76 1 0.374009 0.33149 0.5
78 1 0.42451 0.328713 0.5
80 1 0.472983 0.329946 0.5
83 1 0.049198 0.380497 0.5
82 1 0.0254962 0.425571 0.5
85 1 0.0985561 0.380579 0.5
84 1 0.0758044 0.427341 0.5
87 1 0.147965 0.380015 0.5
86 1 0.126431 0.426312 0.5
88 1 0.176473 0.426304 0.5
89 1 0.199779 0.376468 0.5
90 1 0.226823 0.424788 0.5
91 1 0.249053 0.376245 0.5
93 1 0.298267 0.378802 0.5
92 1 0.273888 0.425993 0.5
95 1 0.349788 0.37908 0.5
94 1 0.324353 0.427589 0.5
96 1 0.372558 0.426321 0.5
97 1 0.400257 0.378548 0.5
98 1 0.421149 0.426761 0.5
100 1 0.473371 0.422768 0.5
99 1 0.449073 0.375027 0.5
103 1 0.0504249 0.47399 0.5
107 1 0.10222 0.476731 0.5
109 1 0.150458 0.474407 0.5
111 1 0.201035 0.474695 0.5
112 1 0.249645 0.472534 0.5
113 1 0.296705 0.472987 0.5
115 1 0.34746 0.472925 0.5
117 1 0.397414 0.470671 0.5
271 1 0.499823 0.284688 0.5
291 1 0.500429 0.377439 0.5
81 1 0.000238363 0.376416 0.5
251 1 0.500571 0.191174 0.5
311 1 0.499593 0.470069 0.5
41 1 7.6692e-05 0.1899 0.5
102 1 0.0275397 0.521299 0.5
104 1 0.053111 0.568814 0.5
105 1 0.0789771 0.525438 0.5
106 1 0.101589 0.573474 0.5
108 1 0.12841 0.522861 0.5
110 1 0.176966 0.522066 0.5
129 1 0.15147 0.573115 0.5
133 1 0.22693 0.518476 0.5
131 1 0.20356 0.569357 0.5
134 1 0.25202 0.56694 0.5
135 1 0.274511 0.520514 0.5
136 1 0.298514 0.566638 0.5
114 1 0.32351 0.518917 0.5
116 1 0.373867 0.517438 0.5
137 1 0.351975 0.566805 0.5
118 1 0.426343 0.520804 0.5
139 1 0.401078 0.564832 0.5
120 1 0.473267 0.52145 0.5
331 1 0.450083 0.566741 0.5
208 1 0.330006 0.994011 0.5
123 1 0.0282826 0.616822 0.5
125 1 0.0800779 0.619765 0.5
127 1 0.12835 0.617146 0.5
130 1 0.177971 0.618545 0.5
132 1 0.229086 0.617404 0.5
155 1 0.280168 0.612674 0.5
157 1 0.327682 0.616604 0.5
138 1 0.377166 0.615755 0.5
140 1 0.423599 0.615244 0.5
332 1 0.475938 0.612919 0.5
124 1 0.0523173 0.662666 0.5
143 1 0.0292285 0.711024 0.5
209 1 0.355322 0.943373 0.5
126 1 0.104033 0.664765 0.5
145 1 0.0785129 0.708853 0.5
147 1 0.127903 0.708936 0.5
128 1 0.153619 0.665026 0.5
149 1 0.179931 0.71296 0.5
151 1 0.204369 0.66487 0.5
152 1 0.230706 0.712022 0.5
153 1 0.254297 0.664361 0.5
156 1 0.300598 0.66159 0.5
154 1 0.278041 0.71353 0.5
158 1 0.353165 0.66389 0.5
179 1 0.376663 0.708818 0.5
177 1 0.329526 0.710386 0.5
159 1 0.40094 0.663372 0.5
160 1 0.425135 0.710295 0.5
351 1 0.45221 0.661971 0.5
352 1 0.475988 0.710256 0.5
144 1 0.0554633 0.756206 0.5
142 1 0.00433503 0.757565 0.5
146 1 0.103407 0.758763 0.5
148 1 0.151333 0.755266 0.5
150 1 0.204864 0.756802 0.5
173 1 0.254274 0.759305 0.5
175 1 0.30362 0.757925 0.5
178 1 0.350483 0.757232 0.5
180 1 0.40238 0.756098 0.5
371 1 0.452877 0.756587 0.5
163 1 0.0308468 0.805383 0.5
164 1 0.0538269 0.853491 0.5
162 1 0.00479324 0.854648 0.5
165 1 0.0784372 0.804373 0.5
166 1 0.102422 0.853035 0.5
167 1 0.128577 0.806166 0.5
169 1 0.178592 0.804247 0.5
168 1 0.155429 0.850823 0.5
171 1 0.22703 0.805423 0.5
170 1 0.203175 0.851176 0.5
172 1 0.251471 0.851358 0.5
174 1 0.277094 0.804348 0.5
195 1 0.304851 0.851 0.5
176 1 0.329174 0.803768 0.5
197 1 0.354423 0.849913 0.5
199 1 0.379515 0.800752 0.5
391 1 0.428564 0.802737 0.5
210 1 0.400686 0.846198 0.5
411 1 0.476511 0.802788 0.5
200 1 0.450007 0.849589 0.5
121 1 0.00456113 0.567578 0.5
183 1 0.0288018 0.902607 0.5
185 1 0.078704 0.899566 0.5
187 1 0.129998 0.900406 0.5
189 1 0.180487 0.895809 0.5
191 1 0.230642 0.897754 0.5
193 1 0.279761 0.896726 0.5
196 1 0.330367 0.896825 0.5
198 1 0.379437 0.897897 0.5
184 1 0.0544238 0.948111 0.5
202 1 0.0292033 0.997225 0.5
182 1 0.00144941 0.948131 0.5
203 1 0.0810662 0.993459 0.5
186 1 0.103045 0.946058 0.5
204 1 0.129441 0.995494 0.5
188 1 0.155847 0.944311 0.5
205 1 0.180052 0.993437 0.5
206 1 0.231403 0.994071 0.5
190 1 0.208314 0.946798 0.5
207 1 0.281531 0.992796 0.5
194 1 0.305375 0.94562 0.5
192 1 0.255529 0.946738 0.5
122 1 0.00277726 0.660408 0.5
333 1 0.499108 0.565237 0.5
211 2 0.5 9.55616e-05 0.5
212 2 0.525 0.0478763 0.5
213 2 0.55 9.55616e-05 0.5
214 2 0.575 0.0478763 0.5
215 2 0.6 9.55616e-05 0.5
216 2 0.625 0.0478763 0.5
217 2 0.65 9.55616e-05 0.5
218 2 0.675 0.0478763 0.5
219 2 0.7 9.55616e-05 0.5
220 2 0.725 0.0478763 0.5
221 2 0.75 9.55616e-05 0.5
222 2 0.775 0.0478763 0.5
223 2 0.8 9.55616e-05 0.5
224 2 0.825 0.0478763 0.5
225 2 0.85 9.55616e-05 0.5
226 2 0.875 0.0478763 0.5
227 2 0.9 9.55616e-05 0.5
228 2 0.925 0.0478763 0.5
229 2 0.95 9.55616e-05 0.5
230 2 0.975 0.0478763 0.5
231 2 0.5 0.0956571 0.5
233 2 0.55 0.0956571 0.5
235 2 0.6 0.0956571 0.5
237 2 0.65 0.0956571 0.5
239 2 0.7 0.0956571 0.5
241 2 0.75 0.0956571 0.5
243 2 0.8 0.0956571 0.5
245 2 0.85 0.0956571 0.5
244 1 0.823257 0.143141 0.5
247 2 0.9 0.0956571 0.5
249 2 0.95 0.0956571 0.5
232 1 0.522946 0.142203 0.5
253 1 0.548969 0.19271 0.5
234 1 0.573693 0.144796 0.5
255 1 0.598406 0.189585 0.5
236 1 0.622693 0.144187 0.5
238 1 0.672092 0.139828 0.5
257 1 0.651319 0.187682 0.5
240 1 0.725254 0.14302 0.5
259 1 0.698666 0.190095 0.5
242 1 0.775989 0.145769 0.5
261 1 0.749105 0.189435 0.5
263 1 0.802198 0.190155 0.5
246 1 0.876317 0.141488 0.5
265 1 0.851087 0.185677 0.5
248 1 0.928027 0.142511 0.5
267 1 0.899044 0.189627 0.5
250 1 0.974836 0.141208 0.5
269 1 0.950529 0.188068 0.5
329 1 0.951983 0.47469 0.5
252 1 0.522547 0.237665 0.5
273 1 0.549388 0.284128 0.5
254 1 0.574614 0.239818 0.5
275 1 0.603981 0.285256 0.5
256 1 0.625488 0.234379 0.5
258 1 0.673388 0.236202 0.5
277 1 0.650148 0.28337 0.5
260 1 0.728939 0.236757 0.5
281 1 0.752611 0.283688 0.5
262 1 0.77855 0.235406 0.5
283 1 0.80243 0.283907 0.5
264 1 0.826658 0.237092 0.5
266 1 0.875534 0.234957 0.5
285 1 0.851122 0.285902 0.5
268 1 0.924906 0.234068 0.5
270 1 0.974877 0.235924 0.5
289 1 0.950235 0.285145 0.5
327 1 0.902784 0.475761 0.5
272 1 0.52406 0.331913 0.5
274 1 0.574598 0.330925 0.5
276 1 0.628731 0.333003 0.5
278 1 0.678587 0.328181 0.5
279 1 0.699197 0.28179 0.5
280 1 0.726521 0.33085 0.5
282 1 0.777442 0.329589 0.5
284 1 0.827154 0.331563 0.5
286 1 0.878535 0.332071 0.5
287 1 0.901102 0.281094 0.5
288 1 0.926461 0.328589 0.5
290 1 0.97505 0.331741 0.5
293 1 0.549035 0.378094 0.5
292 1 0.52395 0.424945 0.5
321 1 0.75062 0.471185 0.5
295 1 0.601054 0.377517 0.5
294 1 0.575156 0.425202 0.5
297 1 0.654517 0.377712 0.5
299 1 0.702388 0.378801 0.5
301 1 0.750705 0.376407 0.5
303 1 0.805323 0.377965 0.5
305 1 0.854042 0.380781 0.5
304 1 0.829078 0.427422 0.5
306 1 0.877688 0.429079 0.5
308 1 0.927162 0.425973 0.5
307 1 0.902502 0.379346 0.5
310 1 0.974603 0.425925 0.5
309 1 0.950793 0.378507 0.5
325 1 0.852488 0.474061 0.5
313 1 0.546421 0.47197 0.5
302 1 0.773956 0.422871 0.5
315 1 0.600508 0.475423 0.5
296 1 0.623291 0.427462 0.5
298 1 0.674698 0.42451 0.5
317 1 0.653221 0.472252 0.5
319 1 0.70317 0.474228 0.5
300 1 0.723126 0.424767 0.5
323 1 0.800255 0.471967 0.5
61 1 0.997576 0.281451 0.5
312 1 0.522511 0.516643 0.5
335 1 0.550079 0.566299 0.5
314 1 0.573297 0.519049 0.5
316 1 0.627814 0.520204 0.5
318 1 0.67836 0.518958 0.5
337 1 0.652734 0.563938 0.5
320 1 0.727893 0.520241 0.5
339 1 0.703113 0.565679 0.5
322 1 0.775306 0.518308 0.5
324 1 0.829137 0.520117 0.5
345 1 0.852335 0.57073 0.5
326 1 0.876813 0.521687 0.5
328 1 0.927366 0.519712 0.5
347 1 0.904609 0.567047 0.5
330 1 0.979881 0.522689 0.5
349 1 0.953715 0.568697 0.5
410 1 0.951181 0.950756 0.5
334 1 0.523955 0.612355 0.5
336 1 0.599568 0.562771 0.5
355 1 0.574927 0.61247 0.5
357 1 0.625861 0.610822 0.5
338 1 0.677703 0.61024 0.5
340 1 0.725357 0.615023 0.5
341 1 0.753745 0.567333 0.5
343 1 0.802281 0.568236 0.5
342 1 0.775835 0.615753 0.5
344 1 0.826918 0.616579 0.5
346 1 0.881441 0.615314 0.5
348 1 0.930525 0.61469 0.5
350 1 0.97955 0.612576 0.5
201 1 0.975982 0.997054 0.5
354 1 0.553189 0.660971 0.5
373 1 0.526226 0.708422 0.5
356 1 0.599946 0.66197 0.5
375 1 0.577245 0.709 0.5
377 1 0.627973 0.709097 0.5
358 1 0.651079 0.659156 0.5
379 1 0.676406 0.710556 0.5
359 1 0.69871 0.660043 0.5
360 1 0.728734 0.710722 0.5
361 1 0.748556 0.662768 0.5
363 1 0.802699 0.662544 0.5
362 1 0.776013 0.707842 0.5
365 1 0.853122 0.658526 0.5
364 1 0.826658 0.706018 0.5
366 1 0.87894 0.709136 0.5
367 1 0.90507 0.663085 0.5
368 1 0.930205 0.709014 0.5
369 1 0.956008 0.660736 0.5
141 1 0.98001 0.709782 0.5
374 1 0.553973 0.756772 0.5
420 1 0.927945 1.00066 0.5
376 1 0.607798 0.754951 0.5
378 1 0.654994 0.75746 0.5
380 1 0.704248 0.756974 0.5
381 1 0.754099 0.759216 0.5
383 1 0.804559 0.751926 0.5
385 1 0.854793 0.757587 0.5
387 1 0.906845 0.757357 0.5
370 1 0.956151 0.75745 0.5
393 1 0.530534 0.805057 0.5
412 1 0.555333 0.84868 0.5
394 1 0.579667 0.801149 0.5
413 1 0.607711 0.849962 0.5
395 1 0.631139 0.804883 0.5
397 1 0.67955 0.806009 0.5
396 1 0.655292 0.853405 0.5
401 1 0.728382 0.80552 0.5
399 1 0.705881 0.852646 0.5
400 1 0.755147 0.851445 0.5
382 1 0.777359 0.804974 0.5
403 1 0.804499 0.850271 0.5
384 1 0.827535 0.801643 0.5
405 1 0.854792 0.848285 0.5
386 1 0.883062 0.80321 0.5
389 1 0.933771 0.804541 0.5
388 1 0.906834 0.849851 0.5
161 1 0.981754 0.806043 0.5
390 1 0.955569 0.854413 0.5
414 1 0.681724 0.900917 0.5
398 1 0.730522 0.902026 0.5
402 1 0.782368 0.898098 0.5
404 1 0.829118 0.89882 0.5
407 1 0.877662 0.899415 0.5
409 1 0.92867 0.901031 0.5
181 1 0.977785 0.902831 0.5
415 1 0.760158 0.944972 0.5
417 1 0.806221 0.949884 0.5
416 1 0.780704 0.993945 0.5
406 1 0.85378 0.946472 0.5
418 1 0.831133 0.995131 0.5
419 1 0.879326 0.995392 0.5
408 1 0.902579 0.948032 0.5
392 1 0.50101 0.851829 0.5
372 1 0.502456 0.75741 0.5
353 1 0.504011 0.663269 0.5
