ITEM: TIMESTEP
21000
ITEM: NUMBER OF ATOMS
420
ITEM: BOX BOUNDS pp ss pp
0.0000000000000000e+00 2.2653923264628304e+01
-1.9618873042551413e-03 2.1009928756621868e+01
-2.8317404080785380e-01 2.8317404080785380e-01
ITEM: ATOMS id type xs ys zs
1 2 0 9.33703e-05 0.5
2 2 0.025 0.0467785 0.5
3 2 0.05 9.33703e-05 0.5
4 2 0.075 0.0467785 0.5
5 2 0.1 9.33703e-05 0.5
6 2 0.125 0.0467785 0.5
7 2 0.15 9.33703e-05 0.5
8 2 0.175 0.0467785 0.5
9 2 0.2 9.33703e-05 0.5
10 2 0.225 0.0467785 0.5
11 2 0.25 9.33703e-05 0.5
12 2 0.275 0.0467785 0.5
13 2 0.3 9.33703e-05 0.5
14 2 0.325 0.0467785 0.5
15 2 0.35 9.33703e-05 0.5
16 2 0.375 0.0467785 0.5
17 2 0.4 9.33703e-05 0.5
18 2 0.425 0.0467785 0.5
19 2 0.45 9.33703e-05 0.5
20 2 0.475 0.0467785 0.5
21 2 0 0.0934637 0.5
23 2 0.05 0.0934637 0.5
22 1 0.0237661 0.13928 0.5
25 2 0.1 0.0934637 0.5
24 1 0.0729206 0.138615 0.5
26 1 0.122548 0.136631 0.5
27 2 0.15 0.0934637 0.5
29 2 0.2 0.0934637 0.5
30 1 0.221263 0.136569 0.5
31 2 0.25 0.0934637 0.5
33 2 0.3 0.0934637 0.5
35 2 0.35 0.0934637 0.5
34 1 0.323184 0.136262 0.5
37 2 0.4 0.0934637 0.5
38 1 0.425322 0.138046 0.5
39 2 0.45 0.0934637 0.5
43 1 0.0465359 0.183175 0.5
100 1 0.453393 0.41111 0.5
45 1 0.0963409 0.183047 0.5
28 1 0.17114 0.136437 0.5
47 1 0.145472 0.179582 0.5
49 1 0.196208 0.180599 0.5
51 1 0.246836 0.179141 0.5
32 1 0.27492 0.137025 0.5
53 1 0.297404 0.180426 0.5
55 1 0.348146 0.180839 0.5
36 1 0.374127 0.137201 0.5
57 1 0.396486 0.181744 0.5
40 1 0.472929 0.13939 0.5
59 1 0.446507 0.183301 0.5
98 1 0.405239 0.411938 0.5
42 1 0.0239227 0.228945 0.5
63 1 0.0469634 0.276446 0.5
311 1 0.470549 0.457742 0.5
44 1 0.0711155 0.229307 0.5
65 1 0.0957288 0.272522 0.5
46 1 0.121912 0.2239 0.5
48 1 0.171647 0.222861 0.5
67 1 0.143371 0.267442 0.5
50 1 0.220986 0.222531 0.5
69 1 0.193686 0.265647 0.5
71 1 0.244388 0.26647 0.5
52 1 0.269472 0.223674 0.5
73 1 0.294101 0.267951 0.5
54 1 0.322232 0.224911 0.5
56 1 0.371868 0.226632 0.5
75 1 0.344153 0.26986 0.5
58 1 0.420331 0.226249 0.5
77 1 0.39509 0.271849 0.5
60 1 0.470471 0.227144 0.5
79 1 0.444064 0.27223 0.5
271 1 0.491947 0.273135 0.5
62 1 0.0230472 0.323407 0.5
64 1 0.0699941 0.321504 0.5
66 1 0.119908 0.317553 0.5
68 1 0.166518 0.311316 0.5
70 1 0.21559 0.308578 0.5
72 1 0.266166 0.309974 0.5
74 1 0.318502 0.311988 0.5
76 1 0.367158 0.314381 0.5
78 1 0.41583 0.319336 0.5
80 1 0.466108 0.319863 0.5
83 1 0.0488589 0.371218 0.5
117 1 0.371794 0.454213 0.5
85 1 0.0974862 0.364834 0.5
86 1 0.117421 0.414194 0.5
87 1 0.144529 0.367129 0.5
88 1 0.165793 0.415439 0.5
89 1 0.190942 0.353848 0.5
91 1 0.239149 0.352546 0.5
90 1 0.210205 0.396966 0.5
93 1 0.289071 0.355226 0.5
92 1 0.259054 0.395604 0.5
94 1 0.307986 0.403215 0.5
95 1 0.33622 0.359057 0.5
96 1 0.356204 0.405985 0.5
97 1 0.385515 0.360895 0.5
99 1 0.434123 0.365104 0.5
291 1 0.481674 0.367092 0.5
103 1 0.0517721 0.485895 0.5
82 1 0.024835 0.419005 0.5
84 1 0.07983 0.44532 0.5
105 1 0.0993654 0.495827 0.5
107 1 0.135283 0.460008 0.5
109 1 0.189625 0.468445 0.5
111 1 0.230851 0.44001 0.5
113 1 0.279327 0.443602 0.5
115 1 0.326651 0.449663 0.5
119 1 0.420766 0.46 0.5
251 1 0.495451 0.183758 0.5
112 1 0.244787 0.485715 0.5
116 1 0.338978 0.498902 0.5
114 1 0.291966 0.492287 0.5
101 1 0.00107029 0.46704 0.5
102 1 0.0205326 0.526594 0.5
104 1 0.0717286 0.536016 0.5
106 1 0.120939 0.542611 0.5
108 1 0.155312 0.506603 0.5
129 1 0.169293 0.55763 0.5
110 1 0.203356 0.519079 0.5
131 1 0.217253 0.572548 0.5
208 1 0.260368 0.998823 0.5
133 1 0.254719 0.535003 0.5
412 1 0.492165 0.833092 0.5
373 1 0.492194 0.698155 0.5
135 1 0.302704 0.540432 0.5
137 1 0.350783 0.547477 0.5
194 1 0.244011 0.946752 0.5
120 1 0.436518 0.505834 0.5
312 1 0.485461 0.506307 0.5
123 1 0.035363 0.575391 0.5
122 1 0.00694444 0.613424 0.5
124 1 0.0536652 0.625268 0.5
125 1 0.0840897 0.585092 0.5
126 1 0.102237 0.633703 0.5
127 1 0.136465 0.598721 0.5
130 1 0.184272 0.610331 0.5
132 1 0.233804 0.61962 0.5
134 1 0.267853 0.584177 0.5
136 1 0.315962 0.587791 0.5
139 1 0.39915 0.54827 0.5
138 1 0.364321 0.59567 0.5
140 1 0.414728 0.598139 0.5
332 1 0.465155 0.600413 0.5
331 1 0.449314 0.554059 0.5
143 1 0.0225315 0.664616 0.5
145 1 0.0690082 0.674276 0.5
147 1 0.120054 0.685418 0.5
128 1 0.150147 0.647958 0.5
149 1 0.166307 0.697818 0.5
151 1 0.200951 0.658874 0.5
152 1 0.212579 0.708075 0.5
153 1 0.248551 0.669494 0.5
154 1 0.265171 0.717778 0.5
155 1 0.283027 0.631268 0.5
157 1 0.331 0.6384 0.5
156 1 0.299602 0.678586 0.5
158 1 0.347507 0.688295 0.5
159 1 0.378855 0.644665 0.5
351 1 0.429612 0.644482 0.5
353 1 0.477305 0.648496 0.5
163 1 0.00672049 0.756341 0.5
144 1 0.036773 0.717388 0.5
146 1 0.084427 0.725542 0.5
165 1 0.0536069 0.768883 0.5
148 1 0.134045 0.738929 0.5
150 1 0.181201 0.747344 0.5
173 1 0.228371 0.756526 0.5
175 1 0.279561 0.767179 0.5
177 1 0.313308 0.727935 0.5
160 1 0.393446 0.692371 0.5
179 1 0.36026 0.737757 0.5
371 1 0.407472 0.739743 0.5
352 1 0.4422 0.6918 0.5
372 1 0.455924 0.741061 0.5
164 1 0.0225239 0.808563 0.5
166 1 0.0694188 0.819802 0.5
167 1 0.102662 0.780156 0.5
168 1 0.115937 0.827753 0.5
169 1 0.150044 0.789239 0.5
170 1 0.162381 0.83963 0.5
171 1 0.197257 0.800457 0.5
172 1 0.209695 0.849196 0.5
174 1 0.246696 0.805129 0.5
195 1 0.256724 0.855962 0.5
176 1 0.29343 0.817598 0.5
178 1 0.326547 0.778016 0.5
199 1 0.339666 0.828775 0.5
180 1 0.375421 0.785947 0.5
392 1 0.472225 0.786961 0.5
391 1 0.423914 0.787153 0.5
209 1 0.288203 0.956285 0.5
184 1 0.00566376 0.900003 0.5
185 1 0.0385377 0.859119 0.5
187 1 0.0844339 0.86707 0.5
186 1 0.0536133 0.909489 0.5
189 1 0.12978 0.877406 0.5
191 1 0.179583 0.889227 0.5
193 1 0.226771 0.898854 0.5
196 1 0.272302 0.907573 0.5
197 1 0.306558 0.866851 0.5
198 1 0.319597 0.915243 0.5
200 1 0.394075 0.837035 0.5
210 1 0.356236 0.876252 0.5
411 1 0.444184 0.833943 0.5
203 1 0.0192023 0.950189 0.5
204 1 0.0687407 0.958201 0.5
188 1 0.100225 0.918138 0.5
205 1 0.115938 0.971637 0.5
190 1 0.148077 0.930233 0.5
206 1 0.163702 0.979844 0.5
192 1 0.195608 0.938892 0.5
207 1 0.21245 0.988102 0.5
118 1 0.386193 0.502025 0.5
211 2 0.5 9.33703e-05 0.5
212 2 0.525 0.0467785 0.5
213 2 0.55 9.33703e-05 0.5
214 2 0.575 0.0467785 0.5
215 2 0.6 9.33703e-05 0.5
216 2 0.625 0.0467785 0.5
217 2 0.65 9.33703e-05 0.5
218 2 0.675 0.0467785 0.5
219 2 0.7 9.33703e-05 0.5
220 2 0.725 0.0467785 0.5
221 2 0.75 9.33703e-05 0.5
222 2 0.775 0.0467785 0.5
223 2 0.8 9.33703e-05 0.5
224 2 0.825 0.0467785 0.5
225 2 0.85 9.33703e-05 0.5
226 2 0.875 0.0467785 0.5
227 2 0.9 9.33703e-05 0.5
228 2 0.925 0.0467785 0.5
229 2 0.95 9.33703e-05 0.5
230 2 0.975 0.0467785 0.5
231 2 0.5 0.0934637 0.5
233 2 0.55 0.0934637 0.5
235 2 0.6 0.0934637 0.5
237 2 0.65 0.0934637 0.5
239 2 0.7 0.0934637 0.5
241 2 0.75 0.0934637 0.5
243 2 0.8 0.0934637 0.5
242 1 0.774413 0.143317 0.5
245 2 0.85 0.0934637 0.5
244 1 0.824374 0.137031 0.5
247 2 0.9 0.0934637 0.5
246 1 0.87576 0.137357 0.5
248 1 0.926405 0.135582 0.5
249 2 0.95 0.0934637 0.5
250 1 0.974888 0.137814 0.5
232 1 0.524764 0.140605 0.5
253 1 0.546056 0.187539 0.5
234 1 0.576095 0.141186 0.5
236 1 0.62535 0.142388 0.5
255 1 0.5991 0.187388 0.5
238 1 0.673333 0.140551 0.5
257 1 0.64893 0.187478 0.5
240 1 0.72165 0.146003 0.5
259 1 0.69558 0.189422 0.5
261 1 0.74868 0.192231 0.5
263 1 0.800176 0.187093 0.5
265 1 0.851005 0.181192 0.5
267 1 0.90298 0.180711 0.5
269 1 0.94997 0.1821 0.5
252 1 0.517347 0.231223 0.5
254 1 0.569277 0.234342 0.5
256 1 0.615341 0.2399 0.5
258 1 0.666043 0.239028 0.5
260 1 0.714857 0.239842 0.5
262 1 0.762848 0.247733 0.5
283 1 0.807483 0.266748 0.5
264 1 0.831216 0.225863 0.5
285 1 0.855352 0.272078 0.5
266 1 0.879059 0.226594 0.5
268 1 0.928135 0.229874 0.5
287 1 0.901663 0.273411 0.5
270 1 0.974826 0.230641 0.5
289 1 0.950454 0.277716 0.5
273 1 0.539478 0.275602 0.5
272 1 0.512943 0.32259 0.5
275 1 0.589741 0.284238 0.5
274 1 0.560941 0.327878 0.5
276 1 0.608047 0.332142 0.5
277 1 0.638015 0.286915 0.5
278 1 0.655979 0.339986 0.5
279 1 0.685696 0.291507 0.5
281 1 0.733277 0.293205 0.5
280 1 0.704422 0.344316 0.5
282 1 0.781073 0.309149 0.5
284 1 0.830417 0.314144 0.5
286 1 0.878643 0.320187 0.5
288 1 0.925493 0.320667 0.5
290 1 0.974863 0.323442 0.5
293 1 0.532137 0.372743 0.5
295 1 0.578863 0.379097 0.5
297 1 0.62637 0.381501 0.5
299 1 0.674332 0.386187 0.5
300 1 0.723635 0.391962 0.5
301 1 0.751778 0.349269 0.5
303 1 0.804108 0.356285 0.5
302 1 0.775888 0.397086 0.5
305 1 0.85099 0.362613 0.5
304 1 0.827035 0.404763 0.5
307 1 0.900263 0.366153 0.5
308 1 0.924651 0.413844 0.5
306 1 0.875679 0.413538 0.5
309 1 0.949731 0.371274 0.5
81 1 0.998677 0.372485 0.5
313 1 0.520122 0.466132 0.5
294 1 0.549673 0.424077 0.5
315 1 0.568181 0.472234 0.5
296 1 0.59963 0.426675 0.5
317 1 0.617912 0.47434 0.5
298 1 0.64745 0.430203 0.5
318 1 0.669749 0.478014 0.5
319 1 0.697257 0.435554 0.5
321 1 0.747887 0.438004 0.5
320 1 0.72094 0.479991 0.5
323 1 0.795762 0.444214 0.5
322 1 0.772405 0.487044 0.5
325 1 0.846899 0.453051 0.5
327 1 0.901747 0.458481 0.5
310 1 0.973306 0.419511 0.5
329 1 0.950716 0.464062 0.5
326 1 0.873332 0.500513 0.5
324 1 0.81971 0.493551 0.5
292 1 0.502889 0.415561 0.5
61 1 0.99814 0.277698 0.5
41 1 0.997317 0.184754 0.5
314 1 0.534138 0.516032 0.5
316 1 0.580656 0.52584 0.5
337 1 0.628691 0.528679 0.5
339 1 0.695664 0.520881 0.5
341 1 0.744326 0.527748 0.5
343 1 0.790205 0.534167 0.5
202 1 0.972535 0.94295 0.5
345 1 0.839787 0.539461 0.5
201 1 0.92645 0.92833 0.5
419 1 0.832157 0.910577 0.5
347 1 0.894487 0.546817 0.5
330 1 0.972908 0.511921 0.5
349 1 0.942352 0.557095 0.5
183 1 0.989736 0.84821 0.5
334 1 0.513054 0.60674 0.5
335 1 0.54479 0.566574 0.5
336 1 0.591607 0.578358 0.5
338 1 0.665858 0.559009 0.5
357 1 0.634878 0.596502 0.5
340 1 0.714629 0.568866 0.5
359 1 0.683557 0.606555 0.5
361 1 0.734589 0.615245 0.5
342 1 0.761229 0.575128 0.5
363 1 0.783218 0.622479 0.5
344 1 0.813355 0.580818 0.5
346 1 0.863195 0.587723 0.5
348 1 0.910216 0.596291 0.5
350 1 0.959352 0.606338 0.5
121 1 0.988058 0.564815 0.5
354 1 0.523694 0.659158 0.5
355 1 0.559951 0.618738 0.5
356 1 0.60436 0.635484 0.5
375 1 0.569811 0.672364 0.5
358 1 0.653829 0.644051 0.5
377 1 0.623315 0.682234 0.5
360 1 0.704235 0.653312 0.5
362 1 0.752022 0.665171 0.5
364 1 0.799474 0.674429 0.5
365 1 0.831681 0.630483 0.5
366 1 0.84771 0.68105 0.5
367 1 0.879245 0.638854 0.5
369 1 0.928197 0.647667 0.5
368 1 0.895435 0.686867 0.5
141 1 0.975602 0.655996 0.5
370 1 0.941639 0.69654 0.5
417 1 0.734084 0.891816 0.5
374 1 0.53843 0.710431 0.5
393 1 0.503582 0.747154 0.5
376 1 0.589642 0.718944 0.5
378 1 0.640926 0.730173 0.5
379 1 0.672572 0.690755 0.5
381 1 0.720242 0.704623 0.5
380 1 0.689591 0.742071 0.5
383 1 0.768295 0.71275 0.5
382 1 0.737754 0.754399 0.5
385 1 0.816664 0.721721 0.5
387 1 0.864962 0.728507 0.5
389 1 0.911622 0.738798 0.5
142 1 0.990661 0.705463 0.5
161 1 0.959052 0.746526 0.5
394 1 0.521102 0.793659 0.5
395 1 0.557752 0.757194 0.5
397 1 0.607409 0.76753 0.5
396 1 0.574892 0.802804 0.5
399 1 0.657523 0.779354 0.5
398 1 0.622989 0.815837 0.5
401 1 0.704354 0.794296 0.5
384 1 0.784582 0.760724 0.5
403 1 0.752556 0.803835 0.5
405 1 0.801747 0.812712 0.5
386 1 0.831897 0.771919 0.5
407 1 0.847702 0.82157 0.5
388 1 0.876974 0.779869 0.5
409 1 0.894407 0.830266 0.5
162 1 0.974107 0.797538 0.5
390 1 0.926586 0.788597 0.5
420 1 0.878769 0.923667 0.5
413 1 0.541651 0.837198 0.5
414 1 0.589771 0.851186 0.5
400 1 0.672015 0.830665 0.5
415 1 0.637398 0.869367 0.5
402 1 0.718281 0.843217 0.5
416 1 0.684491 0.880487 0.5
404 1 0.766417 0.853769 0.5
406 1 0.81447 0.861711 0.5
408 1 0.862088 0.870867 0.5
410 1 0.910646 0.879707 0.5
181 1 0.942353 0.837427 0.5
182 1 0.958419 0.889601 0.5
418 1 0.784271 0.904779 0.5
328 1 0.921856 0.503078 0.5
333 1 0.497017 0.557255 0.5
