ITEM: TIMESTEP
36750
ITEM: NUMBER OF ATOMS
420
ITEM: BOX BOUNDS pp ss pp
0.0000000000000000e+00 2.2653923264628304e+01
-1.9618873042551413e-03 2.0743813347702975e+01
-2.8317404080785380e-01 2.8317404080785380e-01
ITEM: ATOMS id type xs ys zs
1 2 0 9.4568e-05 0.5
2 2 0.025 0.0473786 0.5
3 2 0.05 9.4568e-05 0.5
4 2 0.075 0.0473786 0.5
5 2 0.1 9.4568e-05 0.5
6 2 0.125 0.0473786 0.5
7 2 0.15 9.4568e-05 0.5
8 2 0.175 0.0473786 0.5
9 2 0.2 9.4568e-05 0.5
10 2 0.225 0.0473786 0.5
11 2 0.25 9.4568e-05 0.5
12 2 0.275 0.0473786 0.5
13 2 0.3 9.4568e-05 0.5
14 2 0.325 0.0473786 0.5
15 2 0.35 9.4568e-05 0.5
16 2 0.375 0.0473786 0.5
17 2 0.4 9.4568e-05 0.5
18 2 0.425 0.0473786 0.5
19 2 0.45 9.4568e-05 0.5
20 2 0.475 0.0473786 0.5
21 2 0 0.0946626 0.5
23 2 0.05 0.0946626 0.5
25 2 0.1 0.0946626 0.5
27 2 0.15 0.0946626 0.5
29 2 0.2 0.0946626 0.5
30 1 0.225486 0.144391 0.5
31 2 0.25 0.0946626 0.5
33 2 0.3 0.0946626 0.5
35 2 0.35 0.0946626 0.5
34 1 0.327542 0.143988 0.5
36 1 0.37767 0.140052 0.5
37 2 0.4 0.0946626 0.5
39 2 0.45 0.0946626 0.5
40 1 0.476704 0.145211 0.5
22 1 0.0270155 0.14307 0.5
43 1 0.0523828 0.188252 0.5
24 1 0.0766337 0.139547 0.5
45 1 0.10058 0.18856 0.5
26 1 0.125048 0.142001 0.5
28 1 0.174617 0.141024 0.5
47 1 0.151853 0.189568 0.5
49 1 0.198402 0.191588 0.5
32 1 0.272681 0.139008 0.5
51 1 0.248172 0.191581 0.5
53 1 0.301201 0.192084 0.5
55 1 0.352143 0.190856 0.5
38 1 0.426354 0.139879 0.5
57 1 0.403919 0.187185 0.5
59 1 0.452869 0.190597 0.5
42 1 0.0260388 0.234076 0.5
63 1 0.047556 0.283146 0.5
44 1 0.0757951 0.237084 0.5
65 1 0.100556 0.283549 0.5
46 1 0.125414 0.238235 0.5
48 1 0.176514 0.240403 0.5
50 1 0.223264 0.237678 0.5
69 1 0.201174 0.283916 0.5
71 1 0.249501 0.286218 0.5
52 1 0.274644 0.238928 0.5
73 1 0.30302 0.289345 0.5
54 1 0.325092 0.239363 0.5
75 1 0.353595 0.286588 0.5
56 1 0.377743 0.237047 0.5
58 1 0.425096 0.235679 0.5
77 1 0.401893 0.284887 0.5
60 1 0.475986 0.237748 0.5
62 1 0.0283093 0.330617 0.5
64 1 0.0779257 0.327698 0.5
66 1 0.128239 0.332016 0.5
67 1 0.151412 0.286508 0.5
68 1 0.177606 0.334033 0.5
70 1 0.223902 0.335014 0.5
72 1 0.276294 0.334633 0.5
74 1 0.329285 0.333927 0.5
76 1 0.379418 0.334725 0.5
78 1 0.426935 0.334101 0.5
79 1 0.450654 0.285903 0.5
80 1 0.478921 0.331864 0.5
83 1 0.0519964 0.374682 0.5
82 1 0.0271022 0.42406 0.5
85 1 0.103485 0.379693 0.5
86 1 0.128649 0.427113 0.5
87 1 0.155817 0.380257 0.5
88 1 0.178137 0.428286 0.5
89 1 0.203359 0.381938 0.5
90 1 0.22738 0.42793 0.5
91 1 0.252945 0.380035 0.5
93 1 0.301868 0.38332 0.5
92 1 0.274724 0.426425 0.5
95 1 0.35091 0.380578 0.5
94 1 0.326536 0.42675 0.5
96 1 0.378596 0.426977 0.5
97 1 0.402558 0.380692 0.5
98 1 0.430029 0.427735 0.5
99 1 0.454259 0.379859 0.5
100 1 0.478849 0.425236 0.5
103 1 0.0531208 0.475556 0.5
119 1 0.45519 0.473876 0.5
84 1 0.0762208 0.424576 0.5
107 1 0.102677 0.473176 0.5
109 1 0.15088 0.47411 0.5
111 1 0.202536 0.476592 0.5
112 1 0.251735 0.476885 0.5
113 1 0.299421 0.473793 0.5
115 1 0.354396 0.474525 0.5
117 1 0.403017 0.474356 0.5
101 1 0.0043936 0.474561 0.5
61 1 0.000741051 0.280547 0.5
81 1 0.00129912 0.376496 0.5
41 1 0.00188204 0.186662 0.5
104 1 0.0519931 0.570661 0.5
102 1 0.0271485 0.521895 0.5
121 1 0.00230565 0.570483 0.5
106 1 0.101026 0.566716 0.5
105 1 0.0770358 0.520101 0.5
108 1 0.126703 0.51892 0.5
110 1 0.175202 0.52161 0.5
129 1 0.151203 0.570858 0.5
131 1 0.200644 0.564526 0.5
133 1 0.225562 0.521365 0.5
134 1 0.253744 0.570206 0.5
136 1 0.305737 0.570399 0.5
135 1 0.277502 0.524104 0.5
137 1 0.355682 0.566016 0.5
114 1 0.325547 0.520727 0.5
116 1 0.379107 0.520957 0.5
139 1 0.404207 0.570481 0.5
118 1 0.429763 0.522874 0.5
120 1 0.480274 0.518824 0.5
331 1 0.456792 0.565878 0.5
123 1 0.0269395 0.6185 0.5
125 1 0.0773584 0.616514 0.5
127 1 0.128879 0.617086 0.5
130 1 0.178212 0.615073 0.5
132 1 0.228208 0.61651 0.5
155 1 0.279335 0.618633 0.5
157 1 0.330094 0.615524 0.5
138 1 0.381545 0.614917 0.5
140 1 0.431057 0.612872 0.5
332 1 0.4802 0.613848 0.5
124 1 0.0507638 0.661998 0.5
143 1 0.0256603 0.709013 0.5
192 1 0.255124 0.944746 0.5
145 1 0.0752963 0.707133 0.5
126 1 0.103648 0.663435 0.5
147 1 0.126132 0.710831 0.5
128 1 0.152656 0.663999 0.5
149 1 0.178183 0.709157 0.5
151 1 0.204238 0.662748 0.5
152 1 0.226338 0.709125 0.5
153 1 0.25495 0.663805 0.5
156 1 0.303442 0.665956 0.5
154 1 0.276327 0.711838 0.5
158 1 0.354761 0.662881 0.5
177 1 0.325767 0.710779 0.5
179 1 0.377857 0.710194 0.5
159 1 0.40597 0.663415 0.5
160 1 0.428645 0.710595 0.5
351 1 0.452957 0.661655 0.5
352 1 0.48099 0.70968 0.5
144 1 0.0520819 0.754709 0.5
182 1 0.000588988 0.948485 0.5
146 1 0.0999163 0.758265 0.5
148 1 0.149621 0.757 0.5
150 1 0.197991 0.757846 0.5
173 1 0.254465 0.757117 0.5
175 1 0.301491 0.758072 0.5
178 1 0.356094 0.756709 0.5
180 1 0.404799 0.754515 0.5
371 1 0.455954 0.755145 0.5
163 1 0.026722 0.803984 0.5
164 1 0.0481707 0.852837 0.5
207 1 0.283574 0.990426 0.5
165 1 0.0743905 0.80542 0.5
166 1 0.101016 0.851882 0.5
167 1 0.125219 0.804423 0.5
168 1 0.152607 0.852311 0.5
169 1 0.176129 0.804885 0.5
171 1 0.226934 0.80238 0.5
172 1 0.250891 0.849493 0.5
170 1 0.202661 0.851588 0.5
174 1 0.279561 0.807554 0.5
195 1 0.309703 0.848943 0.5
176 1 0.332135 0.801071 0.5
197 1 0.356713 0.846287 0.5
199 1 0.381284 0.801903 0.5
391 1 0.428391 0.80101 0.5
210 1 0.407373 0.849394 0.5
411 1 0.478251 0.802069 0.5
200 1 0.455933 0.847412 0.5
208 1 0.335345 0.986718 0.5
183 1 0.0246512 0.902057 0.5
185 1 0.0748657 0.89889 0.5
187 1 0.127527 0.898672 0.5
189 1 0.178826 0.900423 0.5
191 1 0.227468 0.895991 0.5
193 1 0.27983 0.894221 0.5
196 1 0.331357 0.89755 0.5
198 1 0.381358 0.895531 0.5
184 1 0.0509444 0.946017 0.5
202 1 0.0270235 0.992904 0.5
209 1 0.358268 0.939612 0.5
203 1 0.0767187 0.990615 0.5
186 1 0.102886 0.943727 0.5
204 1 0.124686 0.990078 0.5
188 1 0.155129 0.946984 0.5
205 1 0.174756 0.99404 0.5
190 1 0.203477 0.948177 0.5
206 1 0.231243 0.993238 0.5
194 1 0.306992 0.942315 0.5
162 1 0.000730823 0.852475 0.5
142 1 0.00248053 0.75656 0.5
122 1 0.00200006 0.662327 0.5
211 2 0.5 9.4568e-05 0.5
212 2 0.525 0.0473786 0.5
213 2 0.55 9.4568e-05 0.5
214 2 0.575 0.0473786 0.5
215 2 0.6 9.4568e-05 0.5
216 2 0.625 0.0473786 0.5
217 2 0.65 9.4568e-05 0.5
218 2 0.675 0.0473786 0.5
219 2 0.7 9.4568e-05 0.5
220 2 0.725 0.0473786 0.5
221 2 0.75 9.4568e-05 0.5
222 2 0.775 0.0473786 0.5
223 2 0.8 9.4568e-05 0.5
224 2 0.825 0.0473786 0.5
225 2 0.85 9.4568e-05 0.5
226 2 0.875 0.0473786 0.5
227 2 0.9 9.4568e-05 0.5
228 2 0.925 0.0473786 0.5
229 2 0.95 9.4568e-05 0.5
230 2 0.975 0.0473786 0.5
231 2 0.5 0.0946626 0.5
233 2 0.55 0.0946626 0.5
232 1 0.526297 0.144414 0.5
235 2 0.6 0.0946626 0.5
237 2 0.65 0.0946626 0.5
239 2 0.7 0.0946626 0.5
241 2 0.75 0.0946626 0.5
243 2 0.8 0.0946626 0.5
245 2 0.85 0.0946626 0.5
244 1 0.826116 0.141301 0.5
247 2 0.9 0.0946626 0.5
249 2 0.95 0.0946626 0.5
250 1 0.977046 0.141452 0.5
253 1 0.553845 0.190528 0.5
291 1 0.504611 0.378589 0.5
234 1 0.579316 0.140965 0.5
255 1 0.603578 0.191647 0.5
236 1 0.628282 0.141923 0.5
238 1 0.676577 0.141017 0.5
257 1 0.653491 0.188956 0.5
240 1 0.725824 0.143805 0.5
259 1 0.701958 0.189057 0.5
261 1 0.752354 0.18945 0.5
242 1 0.776809 0.143041 0.5
263 1 0.800889 0.188687 0.5
246 1 0.875363 0.139591 0.5
265 1 0.850358 0.187876 0.5
248 1 0.92731 0.139626 0.5
267 1 0.902101 0.183685 0.5
269 1 0.95275 0.186883 0.5
310 1 0.975861 0.423173 0.5
252 1 0.528615 0.23572 0.5
254 1 0.578703 0.239892 0.5
256 1 0.632083 0.236169 0.5
258 1 0.679425 0.238033 0.5
260 1 0.725949 0.236495 0.5
262 1 0.776 0.235406 0.5
264 1 0.826046 0.234938 0.5
285 1 0.850309 0.279386 0.5
266 1 0.876541 0.232094 0.5
268 1 0.925521 0.234375 0.5
287 1 0.899875 0.279657 0.5
270 1 0.974149 0.233598 0.5
325 1 0.853584 0.467338 0.5
273 1 0.551223 0.282012 0.5
272 1 0.531633 0.33238 0.5
271 1 0.502253 0.284332 0.5
275 1 0.605969 0.28299 0.5
274 1 0.581098 0.327883 0.5
277 1 0.657772 0.284146 0.5
276 1 0.630037 0.329786 0.5
278 1 0.680876 0.331245 0.5
279 1 0.705391 0.28378 0.5
280 1 0.728875 0.330146 0.5
281 1 0.75307 0.282425 0.5
283 1 0.802187 0.280242 0.5
282 1 0.781337 0.329187 0.5
284 1 0.828113 0.32598 0.5
286 1 0.876161 0.324881 0.5
288 1 0.927881 0.327088 0.5
289 1 0.950883 0.279711 0.5
290 1 0.977209 0.327375 0.5
293 1 0.555827 0.379036 0.5
292 1 0.529132 0.428143 0.5
329 1 0.950217 0.467654 0.5
294 1 0.580087 0.425953 0.5
295 1 0.603334 0.376506 0.5
297 1 0.656076 0.377839 0.5
299 1 0.704974 0.376266 0.5
300 1 0.727346 0.423115 0.5
301 1 0.752939 0.376224 0.5
303 1 0.802887 0.377446 0.5
305 1 0.850589 0.373646 0.5
306 1 0.875331 0.418659 0.5
307 1 0.899907 0.37173 0.5
308 1 0.924315 0.421508 0.5
309 1 0.95425 0.374668 0.5
327 1 0.901143 0.467953 0.5
313 1 0.555107 0.474081 0.5
311 1 0.503056 0.471427 0.5
315 1 0.605074 0.472178 0.5
296 1 0.62736 0.426577 0.5
298 1 0.67953 0.421867 0.5
317 1 0.653999 0.468315 0.5
319 1 0.703625 0.46736 0.5
323 1 0.804512 0.468447 0.5
321 1 0.752245 0.468206 0.5
302 1 0.776365 0.424021 0.5
304 1 0.82828 0.421986 0.5
251 1 0.50342 0.191247 0.5
312 1 0.532944 0.520841 0.5
372 1 0.505309 0.753226 0.5
314 1 0.582152 0.519998 0.5
316 1 0.631275 0.516566 0.5
337 1 0.654303 0.561373 0.5
318 1 0.682329 0.516052 0.5
320 1 0.730749 0.51581 0.5
341 1 0.75499 0.561666 0.5
343 1 0.805299 0.560704 0.5
322 1 0.782338 0.514296 0.5
324 1 0.832201 0.516255 0.5
345 1 0.853712 0.568141 0.5
326 1 0.880713 0.515606 0.5
347 1 0.903178 0.568841 0.5
328 1 0.9276 0.520412 0.5
349 1 0.952337 0.570912 0.5
330 1 0.977281 0.522646 0.5
335 1 0.555007 0.566367 0.5
334 1 0.529637 0.612915 0.5
336 1 0.60624 0.566282 0.5
355 1 0.583221 0.614794 0.5
357 1 0.631071 0.61191 0.5
338 1 0.681177 0.609922 0.5
339 1 0.703243 0.564443 0.5
340 1 0.729059 0.608849 0.5
342 1 0.776962 0.610621 0.5
344 1 0.826238 0.611597 0.5
346 1 0.876051 0.613525 0.5
348 1 0.92796 0.615033 0.5
350 1 0.976602 0.61643 0.5
373 1 0.529935 0.706434 0.5
354 1 0.556253 0.660533 0.5
353 1 0.502384 0.661529 0.5
356 1 0.60734 0.661187 0.5
375 1 0.580641 0.705415 0.5
377 1 0.632658 0.706453 0.5
358 1 0.653509 0.659677 0.5
379 1 0.679581 0.70787 0.5
359 1 0.702946 0.658092 0.5
361 1 0.750724 0.659333 0.5
360 1 0.728745 0.707156 0.5
363 1 0.800456 0.657259 0.5
362 1 0.776659 0.708637 0.5
365 1 0.850022 0.659794 0.5
364 1 0.824019 0.70902 0.5
366 1 0.873972 0.708636 0.5
367 1 0.904768 0.664494 0.5
368 1 0.926306 0.711356 0.5
369 1 0.951174 0.662956 0.5
141 1 0.976215 0.707987 0.5
374 1 0.556561 0.751973 0.5
201 1 0.976722 0.99558 0.5
376 1 0.606695 0.751768 0.5
378 1 0.654971 0.752794 0.5
380 1 0.703774 0.753253 0.5
381 1 0.752298 0.755652 0.5
383 1 0.800928 0.75731 0.5
385 1 0.851149 0.757673 0.5
387 1 0.899969 0.756375 0.5
370 1 0.952162 0.757218 0.5
393 1 0.531554 0.800554 0.5
394 1 0.581054 0.800693 0.5
413 1 0.606307 0.847187 0.5
395 1 0.631025 0.80029 0.5
397 1 0.680315 0.799523 0.5
396 1 0.658655 0.847956 0.5
401 1 0.730604 0.803796 0.5
399 1 0.707225 0.850416 0.5
400 1 0.755599 0.853199 0.5
382 1 0.778494 0.808411 0.5
403 1 0.803836 0.852938 0.5
384 1 0.827497 0.805093 0.5
405 1 0.854028 0.850265 0.5
386 1 0.877 0.801594 0.5
389 1 0.923796 0.803375 0.5
388 1 0.902058 0.849304 0.5
161 1 0.977596 0.807276 0.5
390 1 0.951803 0.851842 0.5
412 1 0.556256 0.84364 0.5
414 1 0.679815 0.897786 0.5
398 1 0.73151 0.900818 0.5
402 1 0.779114 0.899835 0.5
404 1 0.829209 0.898712 0.5
407 1 0.877114 0.897349 0.5
409 1 0.927627 0.897771 0.5
181 1 0.976305 0.903419 0.5
415 1 0.756003 0.945497 0.5
417 1 0.803299 0.948272 0.5
416 1 0.778461 0.997055 0.5
406 1 0.851474 0.947624 0.5
418 1 0.831324 0.996642 0.5
420 1 0.930059 0.995971 0.5
419 1 0.878767 0.999673 0.5
408 1 0.901456 0.9502 0.5
410 1 0.951354 0.950827 0.5
392 1 0.504497 0.844226 0.5
333 1 0.50572 0.566559 0.5
