ITEM: TIMESTEP
34250
ITEM: NUMBER OF ATOMS
420
ITEM: BOX BOUNDS pp ss pp
0.0000000000000000e+00 2.2653923264628304e+01
-1.9618873042551413e-03 2.1229652263469980e+01
-2.8317404080785380e-01 2.8317404080785380e-01
ITEM: ATOMS id type xs ys zs
1 2 0 9.24041e-05 0.5
2 2 0.025 0.0462944 0.5
3 2 0.05 9.24041e-05 0.5
4 2 0.075 0.0462944 0.5
5 2 0.1 9.24041e-05 0.5
6 2 0.125 0.0462944 0.5
7 2 0.15 9.24041e-05 0.5
8 2 0.175 0.0462944 0.5
9 2 0.2 9.24041e-05 0.5
10 2 0.225 0.0462944 0.5
11 2 0.25 9.24041e-05 0.5
12 2 0.275 0.0462944 0.5
13 2 0.3 9.24041e-05 0.5
14 2 0.325 0.0462944 0.5
15 2 0.35 9.24041e-05 0.5
16 2 0.375 0.0462944 0.5
17 2 0.4 9.24041e-05 0.5
18 2 0.425 0.0462944 0.5
19 2 0.45 9.24041e-05 0.5
20 2 0.475 0.0462944 0.5
21 2 0 0.0924965 0.5
23 2 0.05 0.0924965 0.5
22 1 0.0231713 0.138191 0.5
25 2 0.1 0.0924965 0.5
24 1 0.0728971 0.138586 0.5
26 1 0.122574 0.137725 0.5
27 2 0.15 0.0924965 0.5
28 1 0.174101 0.13897 0.5
29 2 0.2 0.0924965 0.5
30 1 0.22381 0.137373 0.5
31 2 0.25 0.0924965 0.5
33 2 0.3 0.0924965 0.5
32 1 0.275504 0.138887 0.5
35 2 0.35 0.0924965 0.5
34 1 0.32405 0.137026 0.5
36 1 0.374224 0.137448 0.5
37 2 0.4 0.0924965 0.5
38 1 0.426261 0.140882 0.5
39 2 0.45 0.0924965 0.5
40 1 0.474834 0.140104 0.5
43 1 0.0473814 0.183791 0.5
45 1 0.0983789 0.183743 0.5
47 1 0.150626 0.182549 0.5
49 1 0.199406 0.185012 0.5
51 1 0.248522 0.185165 0.5
53 1 0.297261 0.187291 0.5
55 1 0.348024 0.182671 0.5
57 1 0.400223 0.186198 0.5
59 1 0.450581 0.190319 0.5
42 1 0.0223152 0.232216 0.5
63 1 0.0476344 0.276805 0.5
44 1 0.0730373 0.22804 0.5
65 1 0.0948698 0.274381 0.5
46 1 0.124788 0.227019 0.5
48 1 0.173716 0.228572 0.5
67 1 0.143632 0.27508 0.5
50 1 0.221961 0.230999 0.5
69 1 0.195078 0.279271 0.5
71 1 0.245172 0.276867 0.5
52 1 0.272948 0.231759 0.5
73 1 0.296251 0.275592 0.5
54 1 0.324773 0.234189 0.5
75 1 0.346102 0.282717 0.5
56 1 0.373445 0.230488 0.5
58 1 0.422571 0.235183 0.5
77 1 0.395823 0.279407 0.5
60 1 0.47301 0.235085 0.5
79 1 0.445378 0.282091 0.5
119 1 0.445052 0.466581 0.5
62 1 0.0198901 0.327327 0.5
64 1 0.071162 0.324773 0.5
66 1 0.118669 0.322579 0.5
68 1 0.168665 0.321999 0.5
70 1 0.219698 0.324287 0.5
72 1 0.26925 0.323082 0.5
74 1 0.323118 0.328517 0.5
76 1 0.372092 0.32677 0.5
78 1 0.420098 0.327197 0.5
80 1 0.473057 0.326459 0.5
83 1 0.0451276 0.370223 0.5
82 1 0.0212805 0.415919 0.5
85 1 0.096583 0.370925 0.5
84 1 0.0701033 0.414574 0.5
86 1 0.119795 0.419496 0.5
87 1 0.146014 0.368665 0.5
88 1 0.171223 0.417774 0.5
89 1 0.194162 0.370371 0.5
90 1 0.222499 0.415061 0.5
91 1 0.245244 0.368628 0.5
93 1 0.294992 0.370086 0.5
92 1 0.271425 0.417168 0.5
95 1 0.347714 0.374824 0.5
94 1 0.319131 0.41771 0.5
96 1 0.371328 0.419382 0.5
97 1 0.400786 0.376653 0.5
98 1 0.420493 0.420736 0.5
99 1 0.450004 0.37275 0.5
100 1 0.469112 0.419118 0.5
291 1 0.49808 0.37175 0.5
103 1 0.0470131 0.461628 0.5
107 1 0.0931448 0.461348 0.5
109 1 0.147914 0.462047 0.5
112 1 0.248159 0.463641 0.5
111 1 0.198383 0.459455 0.5
311 1 0.494878 0.463488 0.5
113 1 0.29604 0.464233 0.5
115 1 0.344325 0.462832 0.5
117 1 0.394346 0.467359 0.5
251 1 0.499469 0.188164 0.5
271 1 0.498391 0.278908 0.5
41 1 -0.000281028 0.183793 0.5
104 1 0.0471867 0.557577 0.5
102 1 0.0230988 0.509734 0.5
106 1 0.0961384 0.5539 0.5
105 1 0.0703034 0.508545 0.5
108 1 0.11872 0.505965 0.5
110 1 0.171282 0.505703 0.5
129 1 0.14621 0.551998 0.5
131 1 0.195181 0.551018 0.5
134 1 0.24466 0.552223 0.5
136 1 0.295951 0.554924 0.5
135 1 0.272041 0.509037 0.5
137 1 0.343575 0.556909 0.5
116 1 0.370654 0.511895 0.5
208 1 0.29909 0.963143 0.5
139 1 0.395405 0.555656 0.5
118 1 0.42172 0.511208 0.5
120 1 0.470854 0.509656 0.5
333 1 0.495271 0.554252 0.5
331 1 0.445584 0.553577 0.5
123 1 0.0234534 0.603617 0.5
127 1 0.121775 0.603264 0.5
125 1 0.0737696 0.60519 0.5
128 1 0.151098 0.648281 0.5
130 1 0.174444 0.599927 0.5
151 1 0.199341 0.646816 0.5
132 1 0.220659 0.598257 0.5
153 1 0.247507 0.643709 0.5
155 1 0.271754 0.599182 0.5
156 1 0.299899 0.648575 0.5
157 1 0.323383 0.602301 0.5
138 1 0.371407 0.601368 0.5
158 1 0.34957 0.647641 0.5
140 1 0.422553 0.601515 0.5
332 1 0.472112 0.599769 0.5
124 1 0.0503461 0.6496 0.5
143 1 0.0237544 0.695788 0.5
145 1 0.0743034 0.696561 0.5
126 1 0.100581 0.647598 0.5
149 1 0.173425 0.693354 0.5
147 1 0.124438 0.693734 0.5
152 1 0.22439 0.69076 0.5
154 1 0.274488 0.690615 0.5
177 1 0.325543 0.692258 0.5
179 1 0.373813 0.692857 0.5
159 1 0.397285 0.646988 0.5
160 1 0.421874 0.694032 0.5
353 1 0.497504 0.647396 0.5
351 1 0.446221 0.649288 0.5
352 1 0.471277 0.694338 0.5
144 1 0.0492069 0.741507 0.5
163 1 0.0222785 0.784865 0.5
162 1 -0.00218284 0.830249 0.5
146 1 0.0997309 0.742679 0.5
148 1 0.149152 0.738603 0.5
150 1 0.199818 0.736441 0.5
171 1 0.225391 0.78116 0.5
173 1 0.250194 0.73456 0.5
174 1 0.270721 0.783395 0.5
175 1 0.298258 0.739093 0.5
176 1 0.324072 0.78469 0.5
178 1 0.349096 0.740398 0.5
199 1 0.372671 0.786416 0.5
180 1 0.398563 0.742794 0.5
391 1 0.422188 0.788649 0.5
372 1 0.496544 0.742609 0.5
371 1 0.447114 0.74059 0.5
411 1 0.471527 0.786417 0.5
164 1 0.0518248 0.833806 0.5
207 1 0.263017 0.998187 0.5
165 1 0.0770454 0.7917 0.5
166 1 0.102393 0.83883 0.5
167 1 0.126489 0.786518 0.5
168 1 0.150667 0.841266 0.5
169 1 0.175364 0.791932 0.5
172 1 0.245396 0.826948 0.5
170 1 0.198819 0.844684 0.5
195 1 0.293743 0.829031 0.5
197 1 0.346749 0.830997 0.5
210 1 0.397919 0.837348 0.5
392 1 0.499301 0.834585 0.5
200 1 0.447301 0.835515 0.5
183 1 0.0216015 0.876629 0.5
184 1 0.0439585 0.924017 0.5
185 1 0.0719063 0.881008 0.5
187 1 0.123083 0.884904 0.5
189 1 0.170683 0.892262 0.5
191 1 0.217497 0.895548 0.5
193 1 0.265025 0.871808 0.5
194 1 0.290057 0.913611 0.5
196 1 0.316694 0.874399 0.5
209 1 0.337584 0.927157 0.5
198 1 0.365887 0.878446 0.5
202 1 0.0189763 0.966815 0.5
203 1 0.0674525 0.974565 0.5
186 1 0.0939934 0.929116 0.5
204 1 0.118015 0.979646 0.5
188 1 0.143214 0.936154 0.5
205 1 0.167498 0.98569 0.5
192 1 0.246889 0.94561 0.5
206 1 0.216196 0.989781 0.5
190 1 0.19144 0.941155 0.5
133 1 0.223354 0.506416 0.5
114 1 0.321347 0.510105 0.5
211 2 0.5 9.24041e-05 0.5
212 2 0.525 0.0462944 0.5
213 2 0.55 9.24041e-05 0.5
214 2 0.575 0.0462944 0.5
215 2 0.6 9.24041e-05 0.5
216 2 0.625 0.0462944 0.5
217 2 0.65 9.24041e-05 0.5
218 2 0.675 0.0462944 0.5
219 2 0.7 9.24041e-05 0.5
220 2 0.725 0.0462944 0.5
221 2 0.75 9.24041e-05 0.5
222 2 0.775 0.0462944 0.5
223 2 0.8 9.24041e-05 0.5
224 2 0.825 0.0462944 0.5
225 2 0.85 9.24041e-05 0.5
226 2 0.875 0.0462944 0.5
227 2 0.9 9.24041e-05 0.5
228 2 0.925 0.0462944 0.5
229 2 0.95 9.24041e-05 0.5
230 2 0.975 0.0462944 0.5
231 2 0.5 0.0924965 0.5
233 2 0.55 0.0924965 0.5
232 1 0.523306 0.140385 0.5
235 2 0.6 0.0924965 0.5
234 1 0.573634 0.136728 0.5
236 1 0.622327 0.141702 0.5
237 2 0.65 0.0924965 0.5
238 1 0.675021 0.138842 0.5
239 2 0.7 0.0924965 0.5
240 1 0.724335 0.140784 0.5
241 2 0.75 0.0924965 0.5
243 2 0.8 0.0924965 0.5
242 1 0.776022 0.138103 0.5
245 2 0.85 0.0924965 0.5
244 1 0.826271 0.138911 0.5
246 1 0.876133 0.140147 0.5
247 2 0.9 0.0924965 0.5
248 1 0.924244 0.138548 0.5
249 2 0.95 0.0924965 0.5
250 1 0.974346 0.139813 0.5
253 1 0.548817 0.184572 0.5
329 1 0.946813 0.463893 0.5
255 1 0.595796 0.185652 0.5
257 1 0.64874 0.186343 0.5
259 1 0.698949 0.18291 0.5
261 1 0.750135 0.184947 0.5
263 1 0.798137 0.183811 0.5
265 1 0.848467 0.186675 0.5
267 1 0.900783 0.188629 0.5
269 1 0.948686 0.185678 0.5
101 1 0.998826 0.464826 0.5
252 1 0.522652 0.23327 0.5
273 1 0.547498 0.280173 0.5
254 1 0.574326 0.233181 0.5
275 1 0.596314 0.278874 0.5
256 1 0.626681 0.23019 0.5
258 1 0.674338 0.228056 0.5
277 1 0.647542 0.279837 0.5
260 1 0.722735 0.228923 0.5
279 1 0.696472 0.277515 0.5
281 1 0.747173 0.27783 0.5
262 1 0.772372 0.230715 0.5
283 1 0.797721 0.275983 0.5
264 1 0.820678 0.231171 0.5
285 1 0.846414 0.274379 0.5
266 1 0.869972 0.232857 0.5
268 1 0.923261 0.236368 0.5
287 1 0.896304 0.279008 0.5
270 1 0.97274 0.235505 0.5
289 1 0.945473 0.281147 0.5
61 1 0.997596 0.279538 0.5
272 1 0.522072 0.32763 0.5
274 1 0.573143 0.329837 0.5
276 1 0.621214 0.325939 0.5
278 1 0.671458 0.326698 0.5
280 1 0.72302 0.32513 0.5
282 1 0.774352 0.323753 0.5
284 1 0.823988 0.320446 0.5
286 1 0.87198 0.324323 0.5
288 1 0.921087 0.328482 0.5
290 1 0.970581 0.325288 0.5
293 1 0.547685 0.374799 0.5
292 1 0.520908 0.418083 0.5
294 1 0.568739 0.419068 0.5
295 1 0.599705 0.37386 0.5
296 1 0.622319 0.419066 0.5
297 1 0.647057 0.372661 0.5
298 1 0.671304 0.419164 0.5
299 1 0.697742 0.370574 0.5
300 1 0.722679 0.415718 0.5
301 1 0.747603 0.369524 0.5
303 1 0.798192 0.368651 0.5
302 1 0.770641 0.417755 0.5
305 1 0.849003 0.369594 0.5
304 1 0.819373 0.413281 0.5
306 1 0.870689 0.415004 0.5
307 1 0.897852 0.372249 0.5
308 1 0.921584 0.416781 0.5
81 1 0.995011 0.37111 0.5
309 1 0.94773 0.372094 0.5
310 1 0.971204 0.417123 0.5
313 1 0.543668 0.465281 0.5
315 1 0.595232 0.463091 0.5
317 1 0.644974 0.463509 0.5
319 1 0.697914 0.462496 0.5
321 1 0.745266 0.462365 0.5
323 1 0.79475 0.461033 0.5
325 1 0.844543 0.459508 0.5
327 1 0.895696 0.461544 0.5
335 1 0.547817 0.55575 0.5
312 1 0.521352 0.511336 0.5
314 1 0.571836 0.508775 0.5
316 1 0.622544 0.508888 0.5
336 1 0.596468 0.555235 0.5
337 1 0.646405 0.554717 0.5
318 1 0.673449 0.509138 0.5
339 1 0.698314 0.556542 0.5
320 1 0.723364 0.507352 0.5
341 1 0.747879 0.557799 0.5
343 1 0.795475 0.55585 0.5
322 1 0.773265 0.510094 0.5
324 1 0.820797 0.507288 0.5
345 1 0.845257 0.554019 0.5
326 1 0.872052 0.508295 0.5
347 1 0.89764 0.553406 0.5
328 1 0.920192 0.506975 0.5
349 1 0.946767 0.55317 0.5
330 1 0.972028 0.509367 0.5
121 1 0.996343 0.553044 0.5
334 1 0.520207 0.600945 0.5
355 1 0.573681 0.601439 0.5
357 1 0.624611 0.603298 0.5
338 1 0.672103 0.603852 0.5
340 1 0.722609 0.60391 0.5
342 1 0.773124 0.604664 0.5
344 1 0.82381 0.601846 0.5
346 1 0.874769 0.602984 0.5
348 1 0.925069 0.601597 0.5
350 1 0.974652 0.599571 0.5
373 1 0.52339 0.691143 0.5
354 1 0.547021 0.646487 0.5
356 1 0.596937 0.648651 0.5
375 1 0.572241 0.691277 0.5
377 1 0.622495 0.692005 0.5
358 1 0.647481 0.649946 0.5
379 1 0.673751 0.69342 0.5
359 1 0.697176 0.648619 0.5
361 1 0.745774 0.649514 0.5
360 1 0.72202 0.693228 0.5
363 1 0.798371 0.648618 0.5
362 1 0.772104 0.694168 0.5
365 1 0.846327 0.650364 0.5
364 1 0.821846 0.694834 0.5
366 1 0.876263 0.69086 0.5
367 1 0.902357 0.647856 0.5
368 1 0.926935 0.69304 0.5
369 1 0.951534 0.647616 0.5
141 1 0.975023 0.692934 0.5
201 1 0.967166 0.966828 0.5
374 1 0.545809 0.737641 0.5
393 1 0.520403 0.787972 0.5
376 1 0.595093 0.735075 0.5
394 1 0.571831 0.781251 0.5
395 1 0.618412 0.782067 0.5
378 1 0.645724 0.736279 0.5
397 1 0.669654 0.780001 0.5
380 1 0.698696 0.738977 0.5
401 1 0.721399 0.780909 0.5
381 1 0.747148 0.736775 0.5
383 1 0.797091 0.73867 0.5
382 1 0.77087 0.784978 0.5
384 1 0.821284 0.785386 0.5
385 1 0.846693 0.737248 0.5
386 1 0.870108 0.785988 0.5
387 1 0.898679 0.738667 0.5
389 1 0.923324 0.785633 0.5
370 1 0.949842 0.740197 0.5
161 1 0.975222 0.783573 0.5
412 1 0.547906 0.828609 0.5
413 1 0.597974 0.832125 0.5
396 1 0.646898 0.826079 0.5
399 1 0.695924 0.825689 0.5
400 1 0.744322 0.826916 0.5
403 1 0.792664 0.83164 0.5
405 1 0.849106 0.830429 0.5
388 1 0.898949 0.831538 0.5
390 1 0.948169 0.830938 0.5
414 1 0.667707 0.874465 0.5
398 1 0.718413 0.87112 0.5
415 1 0.742839 0.92147 0.5
402 1 0.767334 0.87534 0.5
417 1 0.794294 0.920198 0.5
404 1 0.821435 0.873582 0.5
407 1 0.869968 0.878203 0.5
406 1 0.843118 0.920237 0.5
408 1 0.893987 0.920664 0.5
409 1 0.923109 0.875422 0.5
410 1 0.943554 0.920886 0.5
182 1 0.994416 0.923967 0.5
181 1 0.970594 0.874876 0.5
416 1 0.771306 0.965799 0.5
418 1 0.820049 0.964168 0.5
419 1 0.870189 0.96956 0.5
420 1 0.91717 0.964514 0.5
142 1 0.997403 0.739824 0.5
122 1 0.997843 0.647058 0.5
