ITEM: TIMESTEP
37500
ITEM: NUMBER OF ATOMS
420
ITEM: BOX BOUNDS pp ss pp
0.0000000000000000e+00 2.2653923264628304e+01
-1.9618873042551413e-03 2.0576922224104411e+01
-2.8317404080785380e-01 2.8317404080785380e-01
ITEM: ATOMS id type xs ys zs
1 2 0 9.5335e-05 0.5
2 2 0.025 0.0477628 0.5
3 2 0.05 9.5335e-05 0.5
4 2 0.075 0.0477628 0.5
5 2 0.1 9.5335e-05 0.5
6 2 0.125 0.0477628 0.5
7 2 0.15 9.5335e-05 0.5
8 2 0.175 0.0477628 0.5
9 2 0.2 9.5335e-05 0.5
10 2 0.225 0.0477628 0.5
11 2 0.25 9.5335e-05 0.5
12 2 0.275 0.0477628 0.5
13 2 0.3 9.5335e-05 0.5
14 2 0.325 0.0477628 0.5
15 2 0.35 9.5335e-05 0.5
16 2 0.375 0.0477628 0.5
17 2 0.4 9.5335e-05 0.5
18 2 0.425 0.0477628 0.5
19 2 0.45 9.5335e-05 0.5
20 2 0.475 0.0477628 0.5
21 2 0 0.0954303 0.5
23 2 0.05 0.0954303 0.5
22 1 0.0258381 0.142822 0.5
25 2 0.1 0.0954303 0.5
26 1 0.124012 0.143451 0.5
27 2 0.15 0.0954303 0.5
29 2 0.2 0.0954303 0.5
30 1 0.22318 0.14345 0.5
31 2 0.25 0.0954303 0.5
33 2 0.3 0.0954303 0.5
35 2 0.35 0.0954303 0.5
34 1 0.323261 0.143324 0.5
37 2 0.4 0.0954303 0.5
38 1 0.421739 0.140876 0.5
39 2 0.45 0.0954303 0.5
40 1 0.472246 0.141172 0.5
43 1 0.0507912 0.188614 0.5
119 1 0.448068 0.476153 0.5
24 1 0.0732989 0.140954 0.5
45 1 0.10111 0.188403 0.5
28 1 0.173854 0.14324 0.5
47 1 0.14835 0.190743 0.5
49 1 0.198435 0.191642 0.5
51 1 0.24827 0.192147 0.5
32 1 0.270605 0.143926 0.5
53 1 0.297526 0.189498 0.5
36 1 0.372576 0.144658 0.5
55 1 0.348873 0.192635 0.5
57 1 0.400026 0.190426 0.5
59 1 0.448926 0.189743 0.5
291 1 0.498347 0.379856 0.5
42 1 0.0247862 0.235239 0.5
63 1 0.0482165 0.282471 0.5
44 1 0.0747698 0.234341 0.5
65 1 0.0970053 0.283238 0.5
46 1 0.123322 0.23511 0.5
48 1 0.171716 0.235986 0.5
67 1 0.145169 0.28158 0.5
50 1 0.221785 0.240675 0.5
69 1 0.195635 0.282773 0.5
52 1 0.27191 0.237929 0.5
54 1 0.323443 0.240892 0.5
75 1 0.347506 0.289425 0.5
56 1 0.373623 0.24094 0.5
58 1 0.425251 0.238323 0.5
77 1 0.401726 0.28383 0.5
60 1 0.475202 0.236493 0.5
100 1 0.475834 0.432201 0.5
62 1 0.0246261 0.333099 0.5
64 1 0.0720437 0.32943 0.5
66 1 0.124467 0.331178 0.5
68 1 0.1723 0.331873 0.5
70 1 0.223199 0.330411 0.5
71 1 0.250803 0.28673 0.5
73 1 0.297875 0.284756 0.5
72 1 0.274917 0.331631 0.5
74 1 0.324668 0.334177 0.5
76 1 0.37789 0.332046 0.5
78 1 0.428638 0.329339 0.5
79 1 0.452993 0.283437 0.5
80 1 0.477521 0.330323 0.5
83 1 0.0481468 0.381815 0.5
117 1 0.398806 0.476274 0.5
85 1 0.0987487 0.37792 0.5
84 1 0.0765067 0.42572 0.5
86 1 0.123947 0.428594 0.5
87 1 0.149665 0.37898 0.5
89 1 0.199408 0.376266 0.5
90 1 0.225236 0.424322 0.5
91 1 0.250041 0.377434 0.5
93 1 0.302222 0.378025 0.5
92 1 0.274421 0.425178 0.5
95 1 0.351045 0.37793 0.5
94 1 0.325395 0.426843 0.5
97 1 0.400069 0.378287 0.5
98 1 0.423234 0.427377 0.5
99 1 0.448948 0.379951 0.5
82 1 0.0242154 0.428204 0.5
103 1 0.0487147 0.471855 0.5
41 1 0.000720118 0.190614 0.5
107 1 0.0981988 0.473768 0.5
88 1 0.177829 0.426096 0.5
109 1 0.1515 0.473755 0.5
111 1 0.200831 0.474686 0.5
112 1 0.251015 0.472483 0.5
113 1 0.300465 0.474529 0.5
115 1 0.346572 0.473072 0.5
96 1 0.373689 0.430125 0.5
61 1 0.000153961 0.285087 0.5
104 1 0.0518652 0.568696 0.5
102 1 0.0271579 0.521813 0.5
121 1 0.00149184 0.569313 0.5
105 1 0.0753895 0.521969 0.5
108 1 0.126386 0.519634 0.5
110 1 0.177581 0.521911 0.5
129 1 0.151853 0.567168 0.5
133 1 0.226193 0.522752 0.5
134 1 0.246371 0.571014 0.5
136 1 0.29589 0.569554 0.5
135 1 0.273784 0.52178 0.5
137 1 0.348659 0.568968 0.5
114 1 0.322944 0.52124 0.5
116 1 0.372803 0.521841 0.5
139 1 0.399413 0.571997 0.5
118 1 0.423078 0.525563 0.5
120 1 0.474798 0.523956 0.5
331 1 0.450879 0.572593 0.5
123 1 0.0286333 0.616171 0.5
106 1 0.101116 0.567161 0.5
125 1 0.0778236 0.616882 0.5
127 1 0.129785 0.615004 0.5
130 1 0.179872 0.620151 0.5
131 1 0.200413 0.571514 0.5
132 1 0.228853 0.620049 0.5
155 1 0.278197 0.617255 0.5
157 1 0.326094 0.61485 0.5
138 1 0.373268 0.61827 0.5
140 1 0.422455 0.620098 0.5
332 1 0.471367 0.619012 0.5
124 1 0.0513517 0.663464 0.5
143 1 0.0266181 0.710103 0.5
122 1 0.00340555 0.662905 0.5
145 1 0.0780031 0.71144 0.5
126 1 0.100464 0.664109 0.5
147 1 0.124896 0.711662 0.5
128 1 0.151412 0.664588 0.5
151 1 0.202195 0.667206 0.5
152 1 0.226877 0.711777 0.5
153 1 0.252444 0.667053 0.5
156 1 0.298946 0.667483 0.5
154 1 0.275925 0.71896 0.5
158 1 0.349806 0.665402 0.5
177 1 0.326632 0.711929 0.5
179 1 0.376556 0.717734 0.5
159 1 0.398557 0.668689 0.5
160 1 0.426296 0.715722 0.5
351 1 0.451797 0.666759 0.5
352 1 0.47569 0.712639 0.5
144 1 0.0501843 0.759233 0.5
142 1 -0.000122269 0.756668 0.5
146 1 0.10402 0.759972 0.5
149 1 0.175482 0.710467 0.5
148 1 0.153155 0.756745 0.5
150 1 0.202407 0.760368 0.5
173 1 0.250877 0.761737 0.5
175 1 0.300898 0.763815 0.5
178 1 0.351347 0.762634 0.5
180 1 0.405102 0.763322 0.5
371 1 0.453415 0.759533 0.5
163 1 0.0246708 0.804388 0.5
164 1 0.0506587 0.854141 0.5
162 1 0.00287967 0.85501 0.5
165 1 0.0754334 0.806425 0.5
166 1 0.102427 0.853332 0.5
167 1 0.12919 0.805569 0.5
168 1 0.153356 0.853244 0.5
169 1 0.176474 0.804275 0.5
171 1 0.225416 0.809669 0.5
170 1 0.201221 0.852586 0.5
172 1 0.253026 0.857129 0.5
174 1 0.277531 0.807833 0.5
195 1 0.302948 0.856322 0.5
176 1 0.326546 0.809996 0.5
197 1 0.355736 0.854401 0.5
199 1 0.376453 0.807827 0.5
391 1 0.429445 0.809636 0.5
210 1 0.405879 0.858282 0.5
411 1 0.477369 0.808795 0.5
200 1 0.455332 0.857047 0.5
183 1 0.0290141 0.903579 0.5
185 1 0.077178 0.900757 0.5
187 1 0.128552 0.90093 0.5
189 1 0.176362 0.901384 0.5
191 1 0.228928 0.903868 0.5
193 1 0.279055 0.905709 0.5
196 1 0.330958 0.90292 0.5
198 1 0.377268 0.902182 0.5
182 1 0.00398085 0.949486 0.5
184 1 0.0559148 0.948761 0.5
202 1 0.0319399 0.994909 0.5
203 1 0.078978 0.99618 0.5
186 1 0.102128 0.948069 0.5
204 1 0.128598 0.994938 0.5
188 1 0.152962 0.948516 0.5
205 1 0.177068 0.99993 0.5
190 1 0.201809 0.951523 0.5
206 1 0.228926 0.99968 0.5
192 1 0.253487 0.952158 0.5
207 1 0.276226 0.997881 0.5
194 1 0.303833 0.948959 0.5
208 1 0.325639 0.997869 0.5
209 1 0.353763 0.951222 0.5
333 1 0.499464 0.571947 0.5
353 1 0.500248 0.663007 0.5
211 2 0.5 9.5335e-05 0.5
212 2 0.525 0.0477628 0.5
213 2 0.55 9.5335e-05 0.5
214 2 0.575 0.0477628 0.5
215 2 0.6 9.5335e-05 0.5
216 2 0.625 0.0477628 0.5
217 2 0.65 9.5335e-05 0.5
218 2 0.675 0.0477628 0.5
219 2 0.7 9.5335e-05 0.5
220 2 0.725 0.0477628 0.5
221 2 0.75 9.5335e-05 0.5
222 2 0.775 0.0477628 0.5
223 2 0.8 9.5335e-05 0.5
224 2 0.825 0.0477628 0.5
225 2 0.85 9.5335e-05 0.5
226 2 0.875 0.0477628 0.5
227 2 0.9 9.5335e-05 0.5
228 2 0.925 0.0477628 0.5
229 2 0.95 9.5335e-05 0.5
230 2 0.975 0.0477628 0.5
231 2 0.5 0.0954303 0.5
233 2 0.55 0.0954303 0.5
235 2 0.6 0.0954303 0.5
236 1 0.622845 0.14569 0.5
237 2 0.65 0.0954303 0.5
239 2 0.7 0.0954303 0.5
240 1 0.722844 0.142531 0.5
241 2 0.75 0.0954303 0.5
243 2 0.8 0.0954303 0.5
242 1 0.774265 0.143129 0.5
245 2 0.85 0.0954303 0.5
247 2 0.9 0.0954303 0.5
246 1 0.87546 0.142818 0.5
248 1 0.926093 0.141529 0.5
249 2 0.95 0.0954303 0.5
232 1 0.52355 0.141011 0.5
253 1 0.550857 0.193664 0.5
234 1 0.576642 0.143718 0.5
255 1 0.60036 0.194833 0.5
238 1 0.674006 0.143025 0.5
257 1 0.64866 0.194975 0.5
259 1 0.697511 0.188973 0.5
261 1 0.752818 0.189511 0.5
263 1 0.800742 0.191893 0.5
244 1 0.824991 0.14475 0.5
265 1 0.849187 0.189552 0.5
267 1 0.899427 0.188548 0.5
250 1 0.977969 0.142838 0.5
269 1 0.949945 0.189325 0.5
252 1 0.526749 0.240738 0.5
273 1 0.55016 0.288483 0.5
254 1 0.575322 0.239461 0.5
256 1 0.625176 0.241486 0.5
275 1 0.599141 0.288996 0.5
258 1 0.676421 0.240224 0.5
277 1 0.650652 0.285681 0.5
260 1 0.724911 0.239251 0.5
279 1 0.697794 0.288285 0.5
281 1 0.752991 0.286307 0.5
262 1 0.773817 0.237551 0.5
283 1 0.801691 0.284038 0.5
264 1 0.827021 0.237278 0.5
285 1 0.851921 0.28396 0.5
266 1 0.874529 0.236331 0.5
268 1 0.923482 0.232979 0.5
270 1 0.974976 0.234355 0.5
272 1 0.525067 0.333455 0.5
274 1 0.575764 0.335953 0.5
276 1 0.626333 0.332101 0.5
278 1 0.675634 0.334175 0.5
280 1 0.726388 0.334054 0.5
282 1 0.777277 0.336719 0.5
284 1 0.824273 0.333339 0.5
286 1 0.872251 0.333207 0.5
287 1 0.898538 0.28629 0.5
288 1 0.922466 0.334344 0.5
329 1 0.949642 0.475903 0.5
289 1 0.94862 0.285523 0.5
290 1 0.975027 0.332642 0.5
310 1 0.97465 0.428287 0.5
293 1 0.548118 0.383113 0.5
292 1 0.525959 0.429344 0.5
294 1 0.57762 0.428087 0.5
295 1 0.601813 0.382246 0.5
296 1 0.626959 0.428376 0.5
297 1 0.650606 0.380694 0.5
298 1 0.675643 0.42677 0.5
299 1 0.699108 0.380027 0.5
300 1 0.724425 0.429099 0.5
301 1 0.751267 0.380907 0.5
303 1 0.801403 0.382458 0.5
305 1 0.851621 0.381392 0.5
307 1 0.900326 0.380646 0.5
309 1 0.950529 0.380008 0.5
313 1 0.551487 0.478353 0.5
81 1 1.00158 0.378854 0.5
315 1 0.603002 0.476105 0.5
317 1 0.652383 0.475912 0.5
319 1 0.701866 0.475241 0.5
321 1 0.749215 0.478303 0.5
323 1 0.798502 0.475672 0.5
302 1 0.775079 0.42751 0.5
325 1 0.849114 0.47912 0.5
306 1 0.877564 0.428956 0.5
304 1 0.825258 0.42929 0.5
308 1 0.924253 0.429671 0.5
327 1 0.900945 0.47591 0.5
101 1 0.999846 0.47611 0.5
251 1 0.499264 0.189066 0.5
311 1 0.502297 0.476074 0.5
271 1 0.500767 0.285702 0.5
312 1 0.527252 0.526603 0.5
335 1 0.54946 0.570533 0.5
201 1 0.982198 0.997355 0.5
314 1 0.577023 0.524615 0.5
336 1 0.6004 0.571844 0.5
316 1 0.625749 0.523791 0.5
337 1 0.647834 0.572932 0.5
318 1 0.67514 0.520646 0.5
320 1 0.724122 0.526611 0.5
339 1 0.69549 0.568699 0.5
343 1 0.801155 0.571777 0.5
322 1 0.775971 0.526778 0.5
324 1 0.825456 0.526528 0.5
326 1 0.8769 0.523414 0.5
328 1 0.924011 0.523336 0.5
349 1 0.95218 0.570075 0.5
330 1 0.977029 0.522378 0.5
334 1 0.521774 0.615447 0.5
355 1 0.574703 0.621371 0.5
357 1 0.623812 0.618737 0.5
338 1 0.674169 0.616053 0.5
340 1 0.725368 0.617199 0.5
341 1 0.74924 0.573202 0.5
342 1 0.777429 0.619656 0.5
345 1 0.853007 0.570729 0.5
344 1 0.828803 0.618919 0.5
347 1 0.901351 0.571138 0.5
346 1 0.877746 0.617938 0.5
348 1 0.926257 0.618257 0.5
350 1 0.977413 0.617194 0.5
373 1 0.525697 0.71299 0.5
354 1 0.550367 0.667301 0.5
372 1 0.503595 0.76094 0.5
356 1 0.602244 0.669924 0.5
375 1 0.575454 0.713129 0.5
377 1 0.628745 0.717074 0.5
358 1 0.650309 0.667013 0.5
379 1 0.679825 0.717414 0.5
359 1 0.69987 0.66666 0.5
360 1 0.728228 0.714423 0.5
361 1 0.749469 0.663534 0.5
363 1 0.806055 0.664519 0.5
362 1 0.778562 0.714395 0.5
365 1 0.854885 0.66532 0.5
364 1 0.82894 0.714102 0.5
366 1 0.877702 0.711553 0.5
367 1 0.905166 0.664071 0.5
368 1 0.927798 0.710309 0.5
369 1 0.954117 0.663929 0.5
410 1 0.956356 0.948152 0.5
374 1 0.555909 0.761596 0.5
376 1 0.60532 0.767992 0.5
378 1 0.65672 0.767672 0.5
380 1 0.704475 0.764163 0.5
381 1 0.755209 0.762096 0.5
383 1 0.802771 0.760279 0.5
385 1 0.855967 0.758825 0.5
387 1 0.902809 0.757102 0.5
141 1 0.979281 0.709599 0.5
370 1 0.952657 0.7561 0.5
393 1 0.527566 0.807523 0.5
412 1 0.550908 0.856419 0.5
392 1 0.501934 0.853805 0.5
394 1 0.576408 0.811448 0.5
413 1 0.601162 0.856207 0.5
395 1 0.631556 0.813315 0.5
397 1 0.682444 0.812187 0.5
396 1 0.653876 0.858416 0.5
401 1 0.73172 0.810845 0.5
399 1 0.706788 0.857587 0.5
400 1 0.754263 0.85981 0.5
382 1 0.779474 0.812701 0.5
403 1 0.806302 0.859739 0.5
384 1 0.832344 0.807812 0.5
405 1 0.857564 0.853961 0.5
386 1 0.881639 0.805445 0.5
389 1 0.930543 0.806717 0.5
388 1 0.904612 0.852655 0.5
161 1 0.978276 0.806818 0.5
390 1 0.953726 0.853353 0.5
414 1 0.682643 0.904424 0.5
398 1 0.732385 0.907123 0.5
402 1 0.782914 0.906126 0.5
404 1 0.833261 0.90599 0.5
407 1 0.882746 0.90237 0.5
409 1 0.932311 0.903147 0.5
181 1 0.980762 0.904379 0.5
415 1 0.758604 0.952525 0.5
417 1 0.809305 0.951095 0.5
416 1 0.783808 0.998342 0.5
406 1 0.860648 0.951581 0.5
418 1 0.832414 0.998224 0.5
420 1 0.933429 0.995027 0.5
419 1 0.882929 0.998381 0.5
408 1 0.907292 0.950433 0.5
