ITEM: TIMESTEP
33750
ITEM: NUMBER OF ATOMS
420
ITEM: BOX BOUNDS pp ss pp
0.0000000000000000e+00 2.2653923264628304e+01
-1.9618873042551413e-03 2.1275744637306378e+01
-2.8317404080785380e-01 2.8317404080785380e-01
ITEM: ATOMS id type xs ys zs
1 2 0 9.22039e-05 0.5
2 2 0.025 0.0461941 0.5
3 2 0.05 9.22039e-05 0.5
4 2 0.075 0.0461941 0.5
5 2 0.1 9.22039e-05 0.5
6 2 0.125 0.0461941 0.5
7 2 0.15 9.22039e-05 0.5
8 2 0.175 0.0461941 0.5
9 2 0.2 9.22039e-05 0.5
10 2 0.225 0.0461941 0.5
11 2 0.25 9.22039e-05 0.5
12 2 0.275 0.0461941 0.5
13 2 0.3 9.22039e-05 0.5
14 2 0.325 0.0461941 0.5
15 2 0.35 9.22039e-05 0.5
16 2 0.375 0.0461941 0.5
17 2 0.4 9.22039e-05 0.5
18 2 0.425 0.0461941 0.5
19 2 0.45 9.22039e-05 0.5
20 2 0.475 0.0461941 0.5
21 2 0 0.0922961 0.5
23 2 0.05 0.0922961 0.5
22 1 0.0246355 0.13746 0.5
25 2 0.1 0.0922961 0.5
24 1 0.0755339 0.13856 0.5
26 1 0.124111 0.138927 0.5
27 2 0.15 0.0922961 0.5
28 1 0.174202 0.13701 0.5
29 2 0.2 0.0922961 0.5
30 1 0.223575 0.137115 0.5
31 2 0.25 0.0922961 0.5
33 2 0.3 0.0922961 0.5
32 1 0.272984 0.138833 0.5
35 2 0.35 0.0922961 0.5
34 1 0.322241 0.138198 0.5
36 1 0.374594 0.138459 0.5
37 2 0.4 0.0922961 0.5
38 1 0.425856 0.139415 0.5
39 2 0.45 0.0922961 0.5
40 1 0.474224 0.137887 0.5
43 1 0.0482488 0.185642 0.5
45 1 0.0984709 0.184591 0.5
47 1 0.152775 0.186969 0.5
49 1 0.201769 0.181847 0.5
51 1 0.249702 0.185405 0.5
53 1 0.296613 0.183143 0.5
55 1 0.348958 0.18323 0.5
57 1 0.39777 0.184442 0.5
59 1 0.449971 0.186419 0.5
42 1 0.0223216 0.230291 0.5
63 1 0.04937 0.275362 0.5
119 1 0.446886 0.451831 0.5
44 1 0.0734925 0.229433 0.5
65 1 0.09752 0.275555 0.5
46 1 0.124634 0.227773 0.5
48 1 0.175907 0.231227 0.5
67 1 0.146361 0.272374 0.5
50 1 0.223566 0.230662 0.5
69 1 0.196645 0.276631 0.5
71 1 0.248802 0.275371 0.5
52 1 0.275491 0.228146 0.5
73 1 0.296615 0.273697 0.5
54 1 0.32217 0.229375 0.5
75 1 0.347944 0.274874 0.5
56 1 0.370877 0.229311 0.5
58 1 0.422472 0.228775 0.5
77 1 0.395426 0.275462 0.5
60 1 0.479282 0.227955 0.5
79 1 0.450955 0.270917 0.5
62 1 0.0261956 0.320428 0.5
64 1 0.0755275 0.322438 0.5
66 1 0.123886 0.319341 0.5
68 1 0.17152 0.319109 0.5
87 1 0.151507 0.364979 0.5
70 1 0.221102 0.319455 0.5
72 1 0.271285 0.319235 0.5
74 1 0.321765 0.319628 0.5
76 1 0.372104 0.32004 0.5
78 1 0.425404 0.316677 0.5
80 1 0.47437 0.31681 0.5
83 1 0.049601 0.368286 0.5
82 1 0.0256491 0.414922 0.5
115 1 0.35063 0.453459 0.5
85 1 0.101078 0.368006 0.5
84 1 0.075473 0.412004 0.5
86 1 0.123803 0.412203 0.5
88 1 0.172162 0.409158 0.5
89 1 0.199643 0.363952 0.5
90 1 0.220092 0.409998 0.5
91 1 0.247537 0.367971 0.5
93 1 0.297229 0.365292 0.5
92 1 0.273444 0.411019 0.5
95 1 0.347218 0.364483 0.5
94 1 0.323552 0.410157 0.5
96 1 0.373265 0.40588 0.5
97 1 0.402174 0.362135 0.5
98 1 0.423179 0.407912 0.5
99 1 0.451025 0.362223 0.5
100 1 0.477049 0.407017 0.5
103 1 0.0502437 0.459555 0.5
113 1 0.298034 0.453719 0.5
112 1 0.248656 0.456351 0.5
107 1 0.09956 0.457654 0.5
117 1 0.399965 0.452118 0.5
109 1 0.14933 0.456826 0.5
111 1 0.196646 0.454109 0.5
120 1 0.473859 0.496081 0.5
135 1 0.274192 0.499515 0.5
101 1 0.000605728 0.461331 0.5
118 1 0.424766 0.500076 0.5
81 1 0.000913966 0.367793 0.5
133 1 0.223229 0.499588 0.5
114 1 0.32362 0.497502 0.5
102 1 0.02462 0.506037 0.5
208 1 0.29888 0.952624 0.5
106 1 0.0971642 0.549647 0.5
104 1 0.0480892 0.555381 0.5
129 1 0.144789 0.547868 0.5
131 1 0.197474 0.546496 0.5
134 1 0.250245 0.543532 0.5
136 1 0.2983 0.544103 0.5
137 1 0.349585 0.543176 0.5
162 1 0.00124865 0.831869 0.5
353 1 0.496881 0.637094 0.5
139 1 0.399274 0.543943 0.5
333 1 0.496145 0.545568 0.5
331 1 0.447415 0.543659 0.5
142 1 0.00203742 0.738675 0.5
372 1 0.493694 0.733331 0.5
123 1 0.0217593 0.597745 0.5
127 1 0.121653 0.594406 0.5
125 1 0.0734243 0.598526 0.5
128 1 0.14552 0.637808 0.5
130 1 0.170478 0.589568 0.5
151 1 0.195853 0.633356 0.5
132 1 0.221875 0.590474 0.5
153 1 0.246847 0.632824 0.5
155 1 0.272854 0.590105 0.5
156 1 0.296825 0.632765 0.5
157 1 0.327029 0.587358 0.5
138 1 0.375411 0.591942 0.5
158 1 0.346438 0.63644 0.5
140 1 0.422417 0.589093 0.5
332 1 0.469983 0.590529 0.5
124 1 0.0470952 0.644569 0.5
143 1 0.024824 0.690429 0.5
110 1 0.174744 0.501713 0.5
145 1 0.074773 0.692816 0.5
126 1 0.0960097 0.641628 0.5
149 1 0.171237 0.679284 0.5
147 1 0.126087 0.707614 0.5
152 1 0.221026 0.679338 0.5
154 1 0.270895 0.678185 0.5
177 1 0.320102 0.682001 0.5
179 1 0.36971 0.682438 0.5
159 1 0.397674 0.636779 0.5
160 1 0.417308 0.682354 0.5
351 1 0.44499 0.635057 0.5
105 1 0.0739508 0.504885 0.5
352 1 0.471558 0.683028 0.5
144 1 0.0545106 0.74501 0.5
146 1 0.103441 0.754917 0.5
148 1 0.157178 0.757103 0.5
150 1 0.193656 0.722135 0.5
171 1 0.213904 0.767296 0.5
173 1 0.243604 0.725141 0.5
174 1 0.265929 0.769384 0.5
175 1 0.29344 0.725759 0.5
176 1 0.317265 0.772258 0.5
178 1 0.342814 0.725198 0.5
199 1 0.369992 0.771852 0.5
180 1 0.39517 0.727133 0.5
371 1 0.447433 0.726538 0.5
391 1 0.414334 0.774947 0.5
116 1 0.375847 0.4995 0.5
164 1 0.0530928 0.839144 0.5
163 1 0.0267632 0.788369 0.5
165 1 0.0780549 0.797628 0.5
167 1 0.130047 0.801031 0.5
166 1 0.10447 0.844207 0.5
168 1 0.15269 0.84774 0.5
169 1 0.183346 0.807232 0.5
172 1 0.236164 0.815138 0.5
170 1 0.207826 0.856571 0.5
195 1 0.287067 0.814402 0.5
197 1 0.336552 0.820465 0.5
210 1 0.391345 0.82155 0.5
200 1 0.440652 0.821352 0.5
411 1 0.468141 0.77482 0.5
183 1 0.025362 0.882531 0.5
184 1 0.0451047 0.930252 0.5
185 1 0.0745247 0.888834 0.5
187 1 0.121981 0.892104 0.5
189 1 0.174198 0.895741 0.5
191 1 0.225166 0.905539 0.5
193 1 0.256677 0.86324 0.5
194 1 0.273802 0.909962 0.5
196 1 0.307367 0.863632 0.5
209 1 0.325478 0.911067 0.5
198 1 0.357932 0.866557 0.5
202 1 0.0184931 0.972525 0.5
203 1 0.0685515 0.981269 0.5
186 1 0.0926701 0.93879 0.5
204 1 0.116486 0.981559 0.5
188 1 0.145353 0.939334 0.5
205 1 0.164266 0.990784 0.5
190 1 0.195686 0.95007 0.5
206 1 0.216867 1.00043 0.5
192 1 0.24524 0.952044 0.5
207 1 0.268917 0.996828 0.5
392 1 0.491912 0.823728 0.5
108 1 0.125143 0.503165 0.5
211 2 0.5 9.22039e-05 0.5
212 2 0.525 0.0461941 0.5
213 2 0.55 9.22039e-05 0.5
214 2 0.575 0.0461941 0.5
215 2 0.6 9.22039e-05 0.5
216 2 0.625 0.0461941 0.5
217 2 0.65 9.22039e-05 0.5
218 2 0.675 0.0461941 0.5
219 2 0.7 9.22039e-05 0.5
220 2 0.725 0.0461941 0.5
221 2 0.75 9.22039e-05 0.5
222 2 0.775 0.0461941 0.5
223 2 0.8 9.22039e-05 0.5
224 2 0.825 0.0461941 0.5
225 2 0.85 9.22039e-05 0.5
226 2 0.875 0.0461941 0.5
227 2 0.9 9.22039e-05 0.5
228 2 0.925 0.0461941 0.5
229 2 0.95 9.22039e-05 0.5
230 2 0.975 0.0461941 0.5
231 2 0.5 0.0922961 0.5
233 2 0.55 0.0922961 0.5
232 1 0.52427 0.136707 0.5
235 2 0.6 0.0922961 0.5
234 1 0.575161 0.136349 0.5
236 1 0.623826 0.137986 0.5
237 2 0.65 0.0922961 0.5
238 1 0.675432 0.136287 0.5
239 2 0.7 0.0922961 0.5
240 1 0.726339 0.134432 0.5
241 2 0.75 0.0922961 0.5
243 2 0.8 0.0922961 0.5
242 1 0.777304 0.135618 0.5
245 2 0.85 0.0922961 0.5
244 1 0.825561 0.138951 0.5
246 1 0.874878 0.138857 0.5
247 2 0.9 0.0922961 0.5
248 1 0.924957 0.138128 0.5
249 2 0.95 0.0922961 0.5
250 1 0.975037 0.134669 0.5
253 1 0.551846 0.180046 0.5
329 1 0.947584 0.460955 0.5
255 1 0.602517 0.1831 0.5
257 1 0.651025 0.181509 0.5
259 1 0.702419 0.18145 0.5
261 1 0.752949 0.181676 0.5
263 1 0.800966 0.1847 0.5
265 1 0.852106 0.185498 0.5
267 1 0.900577 0.183503 0.5
269 1 0.949307 0.182882 0.5
41 1 0.997234 0.180505 0.5
252 1 0.528006 0.226663 0.5
273 1 0.55118 0.272324 0.5
327 1 0.899719 0.461713 0.5
254 1 0.576719 0.228619 0.5
275 1 0.601776 0.272886 0.5
256 1 0.625146 0.228075 0.5
258 1 0.675604 0.227022 0.5
277 1 0.651992 0.27345 0.5
260 1 0.725761 0.228381 0.5
279 1 0.700377 0.27389 0.5
281 1 0.748867 0.275787 0.5
262 1 0.773527 0.229849 0.5
283 1 0.79901 0.276056 0.5
264 1 0.825216 0.231509 0.5
285 1 0.848299 0.276412 0.5
266 1 0.873421 0.23235 0.5
268 1 0.923416 0.23013 0.5
287 1 0.899326 0.279913 0.5
270 1 0.975344 0.230638 0.5
289 1 0.948574 0.275499 0.5
272 1 0.526796 0.316088 0.5
274 1 0.577575 0.31671 0.5
276 1 0.625109 0.31894 0.5
278 1 0.674156 0.320326 0.5
280 1 0.721849 0.320446 0.5
282 1 0.771722 0.32021 0.5
284 1 0.822385 0.323152 0.5
286 1 0.872724 0.325642 0.5
288 1 0.923916 0.324584 0.5
290 1 0.974503 0.322521 0.5
293 1 0.55142 0.36303 0.5
292 1 0.526316 0.406501 0.5
291 1 0.500541 0.360361 0.5
294 1 0.573588 0.409051 0.5
295 1 0.60056 0.366125 0.5
296 1 0.622111 0.412804 0.5
297 1 0.649719 0.364234 0.5
298 1 0.672146 0.414121 0.5
299 1 0.699492 0.365578 0.5
300 1 0.720884 0.41471 0.5
301 1 0.748264 0.364634 0.5
303 1 0.796892 0.366421 0.5
302 1 0.771456 0.413953 0.5
305 1 0.846171 0.36992 0.5
304 1 0.819803 0.415965 0.5
307 1 0.896953 0.370528 0.5
306 1 0.870884 0.416856 0.5
308 1 0.924523 0.414982 0.5
309 1 0.947818 0.371625 0.5
310 1 0.977352 0.415849 0.5
313 1 0.549343 0.45508 0.5
315 1 0.598416 0.459789 0.5
317 1 0.647288 0.460155 0.5
319 1 0.697031 0.462281 0.5
321 1 0.747472 0.45917 0.5
323 1 0.798955 0.461506 0.5
325 1 0.848488 0.463261 0.5
61 1 0.999601 0.275723 0.5
271 1 0.5007 0.271278 0.5
251 1 0.503321 0.18264 0.5
311 1 0.500573 0.450584 0.5
335 1 0.545871 0.54743 0.5
314 1 0.569838 0.502672 0.5
324 1 0.822057 0.507874 0.5
316 1 0.621423 0.507893 0.5
336 1 0.594739 0.549341 0.5
337 1 0.648624 0.55229 0.5
318 1 0.673086 0.50751 0.5
339 1 0.696782 0.55145 0.5
320 1 0.722391 0.506936 0.5
341 1 0.745588 0.55558 0.5
343 1 0.794227 0.552542 0.5
420 1 0.919608 0.965502 0.5
345 1 0.847069 0.552795 0.5
418 1 0.823145 0.967123 0.5
347 1 0.897674 0.553278 0.5
328 1 0.920643 0.507052 0.5
326 1 0.874531 0.508366 0.5
349 1 0.946429 0.551443 0.5
330 1 0.974104 0.504035 0.5
334 1 0.520762 0.589195 0.5
355 1 0.572364 0.595137 0.5
356 1 0.597571 0.645508 0.5
357 1 0.623138 0.597863 0.5
338 1 0.670971 0.599046 0.5
358 1 0.646864 0.646184 0.5
340 1 0.721864 0.602103 0.5
359 1 0.695076 0.643847 0.5
361 1 0.747508 0.645503 0.5
342 1 0.770307 0.599117 0.5
363 1 0.797026 0.645516 0.5
344 1 0.821708 0.59777 0.5
365 1 0.8476 0.643828 0.5
346 1 0.871793 0.597259 0.5
348 1 0.92148 0.599782 0.5
367 1 0.895163 0.643116 0.5
350 1 0.972545 0.59659 0.5
373 1 0.521088 0.687678 0.5
354 1 0.545851 0.639172 0.5
375 1 0.568549 0.68882 0.5
377 1 0.616134 0.693632 0.5
379 1 0.669769 0.692597 0.5
360 1 0.724529 0.689833 0.5
362 1 0.774857 0.690789 0.5
364 1 0.824909 0.689976 0.5
366 1 0.876122 0.690276 0.5
368 1 0.925167 0.689871 0.5
369 1 0.948281 0.644512 0.5
141 1 0.974291 0.695388 0.5
374 1 0.542658 0.737002 0.5
393 1 0.515274 0.780155 0.5
376 1 0.591933 0.73623 0.5
394 1 0.570465 0.78477 0.5
395 1 0.61927 0.783388 0.5
378 1 0.64632 0.738647 0.5
397 1 0.669689 0.782937 0.5
380 1 0.695796 0.738331 0.5
401 1 0.719499 0.78271 0.5
381 1 0.747849 0.734235 0.5
383 1 0.800272 0.735005 0.5
382 1 0.773578 0.782055 0.5
384 1 0.825666 0.781156 0.5
385 1 0.8498 0.73813 0.5
386 1 0.876176 0.785476 0.5
387 1 0.899661 0.738198 0.5
389 1 0.925939 0.786359 0.5
370 1 0.949244 0.740804 0.5
201 1 0.966486 0.969054 0.5
412 1 0.540002 0.829821 0.5
121 1 0.995681 0.549845 0.5
413 1 0.590803 0.83227 0.5
396 1 0.641884 0.829451 0.5
399 1 0.695075 0.827202 0.5
400 1 0.746339 0.824499 0.5
403 1 0.798838 0.824223 0.5
405 1 0.849809 0.830421 0.5
388 1 0.900634 0.830082 0.5
390 1 0.952457 0.831648 0.5
161 1 0.977492 0.785359 0.5
322 1 0.771101 0.506478 0.5
414 1 0.669406 0.872106 0.5
398 1 0.721794 0.872944 0.5
415 1 0.748821 0.916181 0.5
402 1 0.774133 0.871025 0.5
417 1 0.797346 0.917292 0.5
404 1 0.822222 0.872705 0.5
407 1 0.874421 0.874683 0.5
406 1 0.848107 0.919942 0.5
408 1 0.895862 0.921455 0.5
409 1 0.926268 0.876507 0.5
410 1 0.946954 0.9208 0.5
182 1 0.99553 0.925941 0.5
181 1 0.976319 0.877172 0.5
416 1 0.774576 0.96354 0.5
419 1 0.870187 0.96537 0.5
122 1 0.996085 0.64339 0.5
312 1 0.523611 0.500551 0.5
