ITEM: TIMESTEP
14750
ITEM: NUMBER OF ATOMS
420
ITEM: BOX BOUNDS pp ss pp
0.0000000000000000e+00 2.2653923264628304e+01
-1.9618873042551413e-03 2.0026508820340727e+01
-2.8317404080785380e-01 2.8317404080785380e-01
ITEM: ATOMS id type xs ys zs
1 2 0 9.79549e-05 0.5
2 2 0.025 0.0490754 0.5
3 2 0.05 9.79549e-05 0.5
4 2 0.075 0.0490754 0.5
5 2 0.1 9.79549e-05 0.5
6 2 0.125 0.0490754 0.5
7 2 0.15 9.79549e-05 0.5
8 2 0.175 0.0490754 0.5
9 2 0.2 9.79549e-05 0.5
10 2 0.225 0.0490754 0.5
11 2 0.25 9.79549e-05 0.5
12 2 0.275 0.0490754 0.5
13 2 0.3 9.79549e-05 0.5
14 2 0.325 0.0490754 0.5
15 2 0.35 9.79549e-05 0.5
16 2 0.375 0.0490754 0.5
17 2 0.4 9.79549e-05 0.5
18 2 0.425 0.0490754 0.5
19 2 0.45 9.79549e-05 0.5
20 2 0.475 0.0490754 0.5
21 2 0 0.0980529 0.5
23 2 0.05 0.0980529 0.5
22 1 0.0246429 0.147247 0.5
25 2 0.1 0.0980529 0.5
24 1 0.0739117 0.145954 0.5
26 1 0.125283 0.144342 0.5
27 2 0.15 0.0980529 0.5
28 1 0.173812 0.147287 0.5
29 2 0.2 0.0980529 0.5
30 1 0.223921 0.146537 0.5
31 2 0.25 0.0980529 0.5
33 2 0.3 0.0980529 0.5
32 1 0.274357 0.146249 0.5
35 2 0.35 0.0980529 0.5
34 1 0.324477 0.145232 0.5
36 1 0.375897 0.147149 0.5
37 2 0.4 0.0980529 0.5
38 1 0.423476 0.144753 0.5
39 2 0.45 0.0980529 0.5
40 1 0.474247 0.147454 0.5
43 1 0.0483125 0.194905 0.5
42 1 0.0236414 0.242184 0.5
100 1 0.468429 0.432628 0.5
45 1 0.0976963 0.191376 0.5
44 1 0.0731411 0.241 0.5
47 1 0.147712 0.194961 0.5
48 1 0.174086 0.239931 0.5
49 1 0.200825 0.192871 0.5
50 1 0.223069 0.240941 0.5
51 1 0.249402 0.192908 0.5
53 1 0.297811 0.193498 0.5
52 1 0.272435 0.241295 0.5
55 1 0.34814 0.19307 0.5
54 1 0.320909 0.239224 0.5
56 1 0.370585 0.238478 0.5
57 1 0.398963 0.193211 0.5
59 1 0.44728 0.192129 0.5
60 1 0.469117 0.242246 0.5
119 1 0.439515 0.478632 0.5
63 1 0.0489387 0.287387 0.5
61 1 0.000808563 0.289345 0.5
46 1 0.121611 0.239692 0.5
65 1 0.0991884 0.288584 0.5
67 1 0.151079 0.288353 0.5
69 1 0.199142 0.289991 0.5
71 1 0.245877 0.287009 0.5
73 1 0.294638 0.290827 0.5
75 1 0.344738 0.286013 0.5
58 1 0.421025 0.238576 0.5
77 1 0.395766 0.289392 0.5
79 1 0.444898 0.288533 0.5
62 1 0.022898 0.33927 0.5
83 1 0.047665 0.385278 0.5
271 1 0.494545 0.288033 0.5
64 1 0.0730392 0.336495 0.5
85 1 0.097335 0.38326 0.5
66 1 0.123554 0.336375 0.5
68 1 0.171095 0.337057 0.5
87 1 0.144076 0.382382 0.5
70 1 0.219975 0.336442 0.5
89 1 0.194458 0.386215 0.5
91 1 0.24341 0.384409 0.5
72 1 0.268275 0.334429 0.5
93 1 0.29408 0.383353 0.5
74 1 0.319807 0.334639 0.5
95 1 0.344765 0.382593 0.5
76 1 0.368643 0.335552 0.5
78 1 0.420937 0.334651 0.5
97 1 0.394611 0.383481 0.5
80 1 0.470111 0.334533 0.5
99 1 0.444514 0.382932 0.5
251 1 0.495869 0.195203 0.5
103 1 0.0439186 0.482928 0.5
82 1 0.0209842 0.428828 0.5
105 1 0.0922724 0.4832 0.5
84 1 0.0695113 0.434327 0.5
86 1 0.116781 0.433902 0.5
88 1 0.169472 0.431468 0.5
107 1 0.142718 0.481468 0.5
90 1 0.219264 0.431475 0.5
109 1 0.194219 0.47996 0.5
111 1 0.241278 0.478173 0.5
113 1 0.292907 0.476689 0.5
92 1 0.268143 0.428393 0.5
94 1 0.319742 0.429538 0.5
115 1 0.342109 0.477967 0.5
98 1 0.419416 0.430823 0.5
96 1 0.366863 0.428912 0.5
117 1 0.3913 0.476502 0.5
291 1 0.493433 0.383782 0.5
311 1 0.488536 0.480881 0.5
102 1 0.0187067 0.529753 0.5
104 1 0.0691317 0.531769 0.5
106 1 0.118358 0.528206 0.5
108 1 0.16835 0.529088 0.5
110 1 0.220119 0.528575 0.5
112 1 0.266674 0.522764 0.5
114 1 0.318071 0.527752 0.5
116 1 0.367067 0.525157 0.5
118 1 0.415396 0.524617 0.5
120 1 0.465234 0.528452 0.5
411 1 0.490787 0.909469 0.5
210 1 0.440286 0.914539 0.5
123 1 0.0435565 0.576816 0.5
122 1 0.0198554 0.622279 0.5
196 1 0.340311 0.911778 0.5
125 1 0.0950112 0.576474 0.5
124 1 0.0682345 0.626244 0.5
126 1 0.116869 0.62597 0.5
127 1 0.143553 0.578152 0.5
128 1 0.16388 0.627795 0.5
129 1 0.193635 0.576319 0.5
130 1 0.211913 0.629549 0.5
131 1 0.24078 0.577058 0.5
133 1 0.28928 0.570666 0.5
132 1 0.260085 0.627423 0.5
135 1 0.339402 0.576263 0.5
134 1 0.309918 0.623348 0.5
136 1 0.359437 0.623939 0.5
137 1 0.387312 0.572137 0.5
138 1 0.406281 0.621107 0.5
139 1 0.437329 0.57151 0.5
140 1 0.455498 0.625099 0.5
331 1 0.483452 0.578342 0.5
143 1 0.0396446 0.675045 0.5
142 1 0.0144145 0.722375 0.5
198 1 0.390546 0.92342 0.5
145 1 0.089141 0.673044 0.5
144 1 0.0622658 0.721952 0.5
146 1 0.111974 0.719859 0.5
147 1 0.137234 0.672796 0.5
148 1 0.158607 0.723291 0.5
149 1 0.185639 0.675932 0.5
150 1 0.206754 0.723753 0.5
151 1 0.2344 0.674693 0.5
153 1 0.283352 0.673979 0.5
152 1 0.255237 0.72492 0.5
154 1 0.304665 0.723042 0.5
155 1 0.332385 0.674834 0.5
156 1 0.354719 0.720954 0.5
157 1 0.380423 0.673113 0.5
158 1 0.402923 0.721025 0.5
351 1 0.479934 0.677885 0.5
159 1 0.430357 0.671496 0.5
160 1 0.450365 0.721759 0.5
163 1 0.0358587 0.770947 0.5
165 1 0.0865955 0.769031 0.5
167 1 0.132792 0.771354 0.5
169 1 0.183238 0.773521 0.5
171 1 0.23207 0.777205 0.5
173 1 0.278534 0.770742 0.5
175 1 0.326195 0.771748 0.5
177 1 0.375486 0.768901 0.5
179 1 0.424458 0.767615 0.5
371 1 0.473942 0.771333 0.5
162 1 0.00696471 0.819742 0.5
183 1 0.0335535 0.865715 0.5
164 1 0.0587278 0.817922 0.5
185 1 0.0823882 0.865591 0.5
166 1 0.109372 0.820284 0.5
168 1 0.157637 0.820273 0.5
187 1 0.132334 0.868035 0.5
189 1 0.180664 0.870353 0.5
170 1 0.209655 0.826537 0.5
191 1 0.230966 0.875276 0.5
172 1 0.257496 0.826499 0.5
193 1 0.279187 0.88177 0.5
174 1 0.303223 0.817593 0.5
176 1 0.351968 0.818016 0.5
195 1 0.324957 0.861958 0.5
178 1 0.398962 0.814548 0.5
197 1 0.373146 0.869875 0.5
199 1 0.420087 0.865934 0.5
180 1 0.446561 0.818509 0.5
200 1 0.468247 0.863852 0.5
182 1 0.00912638 0.919102 0.5
202 1 0.0333064 0.967178 0.5
184 1 0.0563255 0.912343 0.5
203 1 0.0806341 0.962762 0.5
186 1 0.10544 0.914309 0.5
204 1 0.127581 0.965299 0.5
188 1 0.154121 0.91734 0.5
205 1 0.175167 0.966602 0.5
190 1 0.204412 0.921693 0.5
206 1 0.223201 0.974821 0.5
207 1 0.268832 0.983753 0.5
192 1 0.254111 0.930313 0.5
194 1 0.301844 0.942793 0.5
208 1 0.315602 0.999489 0.5
209 1 0.349748 0.963155 0.5
391 1 0.494806 0.820496 0.5
211 2 0.5 9.79549e-05 0.5
212 2 0.525 0.0490754 0.5
213 2 0.55 9.79549e-05 0.5
214 2 0.575 0.0490754 0.5
215 2 0.6 9.79549e-05 0.5
216 2 0.625 0.0490754 0.5
217 2 0.65 9.79549e-05 0.5
218 2 0.675 0.0490754 0.5
219 2 0.7 9.79549e-05 0.5
220 2 0.725 0.0490754 0.5
221 2 0.75 9.79549e-05 0.5
222 2 0.775 0.0490754 0.5
223 2 0.8 9.79549e-05 0.5
224 2 0.825 0.0490754 0.5
225 2 0.85 9.79549e-05 0.5
226 2 0.875 0.0490754 0.5
227 2 0.9 9.79549e-05 0.5
228 2 0.925 0.0490754 0.5
229 2 0.95 9.79549e-05 0.5
230 2 0.975 0.0490754 0.5
231 2 0.5 0.0980529 0.5
233 2 0.55 0.0980529 0.5
232 1 0.522006 0.14544 0.5
235 2 0.6 0.0980529 0.5
234 1 0.573271 0.144411 0.5
236 1 0.626058 0.145387 0.5
237 2 0.65 0.0980529 0.5
238 1 0.674247 0.14605 0.5
239 2 0.7 0.0980529 0.5
240 1 0.722593 0.145349 0.5
241 2 0.75 0.0980529 0.5
243 2 0.8 0.0980529 0.5
242 1 0.77572 0.14573 0.5
245 2 0.85 0.0980529 0.5
244 1 0.823499 0.147931 0.5
246 1 0.873327 0.144676 0.5
247 2 0.9 0.0980529 0.5
248 1 0.924001 0.143924 0.5
249 2 0.95 0.0980529 0.5
250 1 0.975341 0.145403 0.5
253 1 0.547059 0.192068 0.5
252 1 0.51915 0.242566 0.5
255 1 0.59641 0.191153 0.5
254 1 0.570672 0.238271 0.5
256 1 0.618267 0.241045 0.5
257 1 0.645213 0.194577 0.5
258 1 0.670766 0.24218 0.5
259 1 0.695945 0.195322 0.5
260 1 0.722398 0.241586 0.5
261 1 0.74592 0.191552 0.5
263 1 0.796582 0.195643 0.5
262 1 0.769098 0.242961 0.5
265 1 0.851645 0.192517 0.5
264 1 0.826525 0.238266 0.5
266 1 0.876411 0.237688 0.5
267 1 0.899471 0.189498 0.5
268 1 0.924304 0.239612 0.5
269 1 0.949147 0.191841 0.5
270 1 0.973059 0.242805 0.5
273 1 0.545683 0.286503 0.5
315 1 0.585486 0.481978 0.5
275 1 0.596678 0.292929 0.5
277 1 0.646231 0.291137 0.5
279 1 0.696768 0.292268 0.5
281 1 0.745138 0.29072 0.5
283 1 0.804003 0.285542 0.5
285 1 0.852843 0.284274 0.5
287 1 0.901478 0.285978 0.5
289 1 0.950435 0.288887 0.5
272 1 0.518335 0.333953 0.5
293 1 0.539929 0.383032 0.5
317 1 0.632427 0.488599 0.5
274 1 0.567267 0.337183 0.5
295 1 0.588588 0.388223 0.5
276 1 0.618426 0.340268 0.5
278 1 0.667895 0.340082 0.5
297 1 0.639583 0.3875 0.5
280 1 0.716948 0.339909 0.5
299 1 0.688418 0.388701 0.5
301 1 0.755975 0.373775 0.5
282 1 0.77944 0.328692 0.5
303 1 0.803877 0.374488 0.5
284 1 0.83051 0.330903 0.5
305 1 0.85493 0.379066 0.5
286 1 0.878866 0.333527 0.5
288 1 0.925378 0.335304 0.5
307 1 0.899783 0.381975 0.5
290 1 0.974744 0.336235 0.5
309 1 0.947938 0.382067 0.5
292 1 0.516445 0.43274 0.5
313 1 0.537064 0.481887 0.5
294 1 0.56486 0.433099 0.5
296 1 0.613829 0.437516 0.5
298 1 0.664379 0.438423 0.5
300 1 0.730133 0.415437 0.5
319 1 0.707083 0.4618 0.5
321 1 0.753624 0.469062 0.5
302 1 0.781295 0.423999 0.5
323 1 0.806838 0.470507 0.5
304 1 0.8292 0.423717 0.5
325 1 0.853279 0.47352 0.5
306 1 0.878281 0.428384 0.5
308 1 0.923213 0.427523 0.5
327 1 0.901113 0.47671 0.5
329 1 0.948174 0.479243 0.5
310 1 0.970639 0.429149 0.5
101 1 0.996813 0.478681 0.5
81 1 0.996586 0.383446 0.5
41 1 0.997695 0.194318 0.5
312 1 0.511828 0.529778 0.5
314 1 0.561107 0.531188 0.5
316 1 0.608374 0.534753 0.5
121 1 0.993161 0.577925 0.5
337 1 0.654794 0.547523 0.5
410 1 0.960194 0.915894 0.5
318 1 0.677873 0.500744 0.5
320 1 0.726506 0.510286 0.5
339 1 0.701408 0.554692 0.5
322 1 0.779282 0.51865 0.5
324 1 0.827025 0.519875 0.5
326 1 0.876175 0.521079 0.5
328 1 0.923341 0.525552 0.5
330 1 0.9705 0.528714 0.5
333 1 0.531876 0.579797 0.5
332 1 0.506055 0.628985 0.5
335 1 0.579342 0.5813 0.5
334 1 0.553517 0.629088 0.5
336 1 0.62831 0.591785 0.5
338 1 0.675344 0.599882 0.5
340 1 0.724959 0.605896 0.5
341 1 0.752497 0.561002 0.5
343 1 0.798708 0.568609 0.5
342 1 0.77065 0.611854 0.5
345 1 0.847207 0.568588 0.5
344 1 0.821895 0.615391 0.5
346 1 0.870797 0.619764 0.5
347 1 0.896153 0.571628 0.5
348 1 0.920058 0.624785 0.5
349 1 0.946919 0.576734 0.5
350 1 0.969944 0.625582 0.5
353 1 0.528011 0.678349 0.5
352 1 0.502709 0.726464 0.5
355 1 0.600517 0.631583 0.5
354 1 0.575812 0.679898 0.5
357 1 0.648652 0.642309 0.5
356 1 0.623235 0.686305 0.5
358 1 0.669345 0.692338 0.5
359 1 0.697577 0.649782 0.5
360 1 0.72053 0.701162 0.5
361 1 0.747099 0.659217 0.5
363 1 0.798337 0.660841 0.5
362 1 0.771814 0.708863 0.5
365 1 0.844839 0.664369 0.5
364 1 0.819644 0.710429 0.5
366 1 0.867072 0.714688 0.5
367 1 0.893613 0.671259 0.5
368 1 0.917342 0.720276 0.5
369 1 0.942121 0.674682 0.5
370 1 0.967976 0.721203 0.5
373 1 0.549983 0.728318 0.5
372 1 0.523806 0.773174 0.5
375 1 0.598315 0.73247 0.5
374 1 0.573195 0.777797 0.5
377 1 0.646872 0.739021 0.5
376 1 0.621103 0.784002 0.5
378 1 0.668716 0.792231 0.5
379 1 0.694535 0.746875 0.5
380 1 0.718509 0.796823 0.5
381 1 0.74618 0.750971 0.5
383 1 0.793677 0.75801 0.5
382 1 0.767218 0.802522 0.5
385 1 0.84084 0.761284 0.5
387 1 0.890307 0.766973 0.5
389 1 0.937261 0.770529 0.5
161 1 0.987043 0.770441 0.5
420 1 0.933236 0.965762 0.5
393 1 0.544184 0.821737 0.5
392 1 0.517926 0.866063 0.5
395 1 0.594099 0.829175 0.5
394 1 0.569582 0.871398 0.5
396 1 0.616298 0.880158 0.5
397 1 0.643113 0.83554 0.5
398 1 0.664988 0.887004 0.5
399 1 0.690659 0.839401 0.5
401 1 0.739122 0.847598 0.5
403 1 0.786519 0.85573 0.5
384 1 0.815527 0.812576 0.5
405 1 0.838546 0.861793 0.5
386 1 0.863152 0.817031 0.5
388 1 0.911706 0.817725 0.5
407 1 0.886723 0.865002 0.5
390 1 0.959422 0.818629 0.5
409 1 0.936785 0.86718 0.5
181 1 0.986435 0.867738 0.5
412 1 0.54025 0.911909 0.5
201 1 0.983935 0.970017 0.5
413 1 0.587473 0.922472 0.5
414 1 0.634045 0.932147 0.5
415 1 0.683512 0.938789 0.5
400 1 0.712564 0.895217 0.5
416 1 0.732487 0.943965 0.5
417 1 0.7788 0.954762 0.5
402 1 0.759885 0.901296 0.5
418 1 0.82784 0.956938 0.5
404 1 0.808367 0.906931 0.5
406 1 0.858389 0.911387 0.5
419 1 0.880572 0.961445 0.5
408 1 0.906834 0.914194 0.5
141 1 0.99212 0.672805 0.5
