ITEM: TIMESTEP
9500
ITEM: NUMBER OF ATOMS
420
ITEM: BOX BOUNDS pp ss pp
0.0000000000000000e+00 2.2653923264628304e+01
-1.9618873042551413e-03 1.9584794993525755e+01
-2.8317404080785380e-01 2.8317404080785380e-01
ITEM: ATOMS id type xs ys zs
1 2 0 0.000100164 0.5
2 2 0.025 0.0501821 0.5
3 2 0.05 0.000100164 0.5
4 2 0.075 0.0501821 0.5
5 2 0.1 0.000100164 0.5
6 2 0.125 0.0501821 0.5
7 2 0.15 0.000100164 0.5
8 2 0.175 0.0501821 0.5
9 2 0.2 0.000100164 0.5
10 2 0.225 0.0501821 0.5
11 2 0.25 0.000100164 0.5
12 2 0.275 0.0501821 0.5
13 2 0.3 0.000100164 0.5
14 2 0.325 0.0501821 0.5
15 2 0.35 0.000100164 0.5
16 2 0.375 0.0501821 0.5
17 2 0.4 0.000100164 0.5
18 2 0.425 0.0501821 0.5
19 2 0.45 0.000100164 0.5
20 2 0.475 0.0501821 0.5
21 2 0 0.100264 0.5
23 2 0.05 0.100264 0.5
22 1 0.0257846 0.14928 0.5
25 2 0.1 0.100264 0.5
24 1 0.0742309 0.149253 0.5
26 1 0.123002 0.149297 0.5
27 2 0.15 0.100264 0.5
28 1 0.174112 0.149257 0.5
29 2 0.2 0.100264 0.5
30 1 0.223547 0.150265 0.5
31 2 0.25 0.100264 0.5
33 2 0.3 0.100264 0.5
32 1 0.273575 0.153461 0.5
35 2 0.35 0.100264 0.5
34 1 0.325931 0.149148 0.5
36 1 0.373433 0.151895 0.5
37 2 0.4 0.100264 0.5
38 1 0.426104 0.146929 0.5
39 2 0.45 0.100264 0.5
40 1 0.476633 0.147821 0.5
43 1 0.0519778 0.198327 0.5
45 1 0.0993847 0.198468 0.5
44 1 0.0745963 0.247534 0.5
47 1 0.150291 0.19951 0.5
48 1 0.174801 0.247742 0.5
49 1 0.198552 0.199596 0.5
50 1 0.224652 0.247494 0.5
51 1 0.245414 0.199408 0.5
53 1 0.30274 0.198887 0.5
52 1 0.271397 0.247474 0.5
55 1 0.351329 0.199937 0.5
54 1 0.324857 0.248447 0.5
56 1 0.375284 0.246342 0.5
57 1 0.401905 0.19596 0.5
59 1 0.451681 0.198317 0.5
60 1 0.475467 0.249555 0.5
105 1 0.100356 0.494807 0.5
42 1 0.0248857 0.248608 0.5
63 1 0.0517644 0.299243 0.5
46 1 0.122758 0.246425 0.5
65 1 0.100198 0.295662 0.5
67 1 0.150703 0.295676 0.5
69 1 0.200751 0.295151 0.5
71 1 0.249768 0.297103 0.5
73 1 0.301136 0.295098 0.5
75 1 0.349181 0.298044 0.5
58 1 0.424733 0.247891 0.5
77 1 0.399754 0.295882 0.5
79 1 0.448034 0.29466 0.5
103 1 0.0486184 0.497658 0.5
62 1 0.0275846 0.350689 0.5
83 1 0.0511569 0.398919 0.5
64 1 0.0777689 0.347246 0.5
85 1 0.0995364 0.398992 0.5
66 1 0.126522 0.349665 0.5
68 1 0.174256 0.344887 0.5
87 1 0.151909 0.396485 0.5
70 1 0.224148 0.347228 0.5
89 1 0.199789 0.399436 0.5
91 1 0.250377 0.394253 0.5
72 1 0.27358 0.345139 0.5
93 1 0.298298 0.392608 0.5
74 1 0.324253 0.343326 0.5
76 1 0.374468 0.346543 0.5
95 1 0.349852 0.393579 0.5
78 1 0.423988 0.347127 0.5
97 1 0.400824 0.39394 0.5
80 1 0.474227 0.344216 0.5
99 1 0.452816 0.394843 0.5
82 1 0.0253873 0.448284 0.5
84 1 0.0754369 0.447807 0.5
86 1 0.125628 0.446234 0.5
61 1 0.000340396 0.2995 0.5
88 1 0.172688 0.447364 0.5
107 1 0.149965 0.494697 0.5
90 1 0.224959 0.44649 0.5
111 1 0.248964 0.49569 0.5
109 1 0.199434 0.494895 0.5
113 1 0.298103 0.492058 0.5
92 1 0.273899 0.443225 0.5
94 1 0.323164 0.445545 0.5
96 1 0.375424 0.441698 0.5
115 1 0.350878 0.490628 0.5
98 1 0.424507 0.440953 0.5
117 1 0.4012 0.492063 0.5
119 1 0.450319 0.491444 0.5
100 1 0.475415 0.4431 0.5
311 1 0.498601 0.491844 0.5
81 1 0.00017736 0.396438 0.5
101 1 0.00142852 0.497287 0.5
102 1 0.0272292 0.547005 0.5
181 1 0.00063586 0.897691 0.5
104 1 0.076761 0.544739 0.5
106 1 0.124834 0.543011 0.5
108 1 0.171704 0.544825 0.5
110 1 0.223649 0.542571 0.5
112 1 0.27346 0.541419 0.5
114 1 0.323415 0.536523 0.5
116 1 0.372601 0.540468 0.5
118 1 0.423336 0.539514 0.5
120 1 0.474135 0.54155 0.5
123 1 0.046257 0.597103 0.5
122 1 0.0240914 0.648638 0.5
210 1 0.45008 0.965222 0.5
125 1 0.0956892 0.596271 0.5
124 1 0.0747278 0.646366 0.5
126 1 0.122766 0.648496 0.5
127 1 0.146311 0.594016 0.5
128 1 0.172413 0.642043 0.5
129 1 0.197986 0.59247 0.5
130 1 0.221116 0.641145 0.5
131 1 0.24912 0.590028 0.5
133 1 0.298035 0.590085 0.5
132 1 0.26892 0.639661 0.5
135 1 0.345854 0.588223 0.5
134 1 0.31939 0.638778 0.5
136 1 0.370671 0.6332 0.5
137 1 0.394969 0.587118 0.5
138 1 0.42202 0.634902 0.5
139 1 0.448813 0.588623 0.5
140 1 0.471392 0.636343 0.5
411 1 0.495306 0.960633 0.5
143 1 0.0463633 0.697837 0.5
200 1 0.471096 0.916948 0.5
145 1 0.0980131 0.69763 0.5
144 1 0.0739343 0.751123 0.5
147 1 0.147037 0.695404 0.5
146 1 0.123414 0.745508 0.5
148 1 0.169558 0.744806 0.5
149 1 0.194469 0.69131 0.5
150 1 0.219679 0.742747 0.5
151 1 0.246035 0.690409 0.5
153 1 0.295005 0.690666 0.5
152 1 0.270348 0.740203 0.5
155 1 0.345294 0.685858 0.5
154 1 0.319902 0.737238 0.5
156 1 0.369187 0.731556 0.5
157 1 0.396228 0.683351 0.5
158 1 0.422158 0.731543 0.5
159 1 0.448062 0.683462 0.5
160 1 0.474264 0.730454 0.5
142 1 0.0241693 0.74825 0.5
163 1 0.0484598 0.798279 0.5
209 1 0.399646 0.978013 0.5
165 1 0.0986052 0.799477 0.5
167 1 0.14578 0.797652 0.5
169 1 0.193878 0.793438 0.5
171 1 0.246859 0.792072 0.5
173 1 0.294494 0.788263 0.5
175 1 0.342913 0.786506 0.5
177 1 0.395257 0.778802 0.5
179 1 0.446908 0.778104 0.5
162 1 0.0230701 0.849728 0.5
183 1 0.0507374 0.896618 0.5
208 1 0.349939 0.988075 0.5
164 1 0.0745449 0.846061 0.5
185 1 0.0985167 0.897862 0.5
166 1 0.123863 0.849665 0.5
168 1 0.173974 0.844301 0.5
187 1 0.149579 0.89684 0.5
170 1 0.224158 0.843666 0.5
189 1 0.200031 0.895224 0.5
191 1 0.250339 0.889927 0.5
172 1 0.272706 0.839503 0.5
193 1 0.298901 0.888071 0.5
174 1 0.323329 0.838454 0.5
176 1 0.369611 0.832423 0.5
195 1 0.347688 0.886171 0.5
178 1 0.418103 0.825226 0.5
197 1 0.394632 0.876822 0.5
180 1 0.471432 0.823958 0.5
199 1 0.444282 0.872047 0.5
194 1 0.326414 0.938465 0.5
182 1 0.0217438 0.94634 0.5
202 1 0.0514986 0.999569 0.5
198 1 0.420999 0.922328 0.5
184 1 0.0747048 0.948599 0.5
203 1 0.0996844 0.998991 0.5
186 1 0.125042 0.948037 0.5
204 1 0.152264 0.994413 0.5
188 1 0.176739 0.946119 0.5
205 1 0.201446 0.996757 0.5
190 1 0.226668 0.940188 0.5
206 1 0.251974 0.986136 0.5
207 1 0.301881 0.986876 0.5
192 1 0.27597 0.936978 0.5
196 1 0.375499 0.931263 0.5
211 2 0.5 0.000100164 0.5
212 2 0.525 0.0501821 0.5
213 2 0.55 0.000100164 0.5
214 2 0.575 0.0501821 0.5
215 2 0.6 0.000100164 0.5
216 2 0.625 0.0501821 0.5
217 2 0.65 0.000100164 0.5
218 2 0.675 0.0501821 0.5
219 2 0.7 0.000100164 0.5
220 2 0.725 0.0501821 0.5
221 2 0.75 0.000100164 0.5
222 2 0.775 0.0501821 0.5
223 2 0.8 0.000100164 0.5
224 2 0.825 0.0501821 0.5
225 2 0.85 0.000100164 0.5
226 2 0.875 0.0501821 0.5
227 2 0.9 0.000100164 0.5
228 2 0.925 0.0501821 0.5
229 2 0.95 0.000100164 0.5
230 2 0.975 0.0501821 0.5
231 2 0.5 0.100264 0.5
233 2 0.55 0.100264 0.5
232 1 0.52752 0.150026 0.5
235 2 0.6 0.100264 0.5
234 1 0.575379 0.14989 0.5
236 1 0.625824 0.148236 0.5
237 2 0.65 0.100264 0.5
238 1 0.675725 0.148345 0.5
239 2 0.7 0.100264 0.5
240 1 0.724129 0.148527 0.5
241 2 0.75 0.100264 0.5
243 2 0.8 0.100264 0.5
242 1 0.77683 0.14812 0.5
245 2 0.85 0.100264 0.5
244 1 0.823533 0.150341 0.5
246 1 0.870788 0.148493 0.5
247 2 0.9 0.100264 0.5
248 1 0.925149 0.15002 0.5
249 2 0.95 0.100264 0.5
250 1 0.973965 0.149812 0.5
253 1 0.552341 0.199092 0.5
255 1 0.599838 0.198996 0.5
254 1 0.575113 0.245363 0.5
257 1 0.651431 0.199204 0.5
259 1 0.700615 0.19846 0.5
260 1 0.725729 0.247381 0.5
261 1 0.751495 0.198896 0.5
263 1 0.800359 0.19772 0.5
262 1 0.775689 0.246001 0.5
265 1 0.850201 0.196771 0.5
267 1 0.897303 0.194933 0.5
269 1 0.947989 0.200012 0.5
304 1 0.828055 0.444897 0.5
252 1 0.523826 0.24537 0.5
273 1 0.551838 0.294532 0.5
275 1 0.603594 0.295347 0.5
256 1 0.62689 0.248277 0.5
258 1 0.676669 0.24626 0.5
277 1 0.654546 0.296436 0.5
279 1 0.702401 0.298665 0.5
281 1 0.753547 0.297054 0.5
283 1 0.80091 0.298085 0.5
266 1 0.874658 0.244242 0.5
264 1 0.826801 0.24923 0.5
285 1 0.851476 0.29541 0.5
268 1 0.923576 0.245924 0.5
287 1 0.898655 0.297623 0.5
270 1 0.971762 0.248611 0.5
289 1 0.948708 0.297324 0.5
327 1 0.902583 0.496658 0.5
272 1 0.531313 0.343284 0.5
293 1 0.552622 0.39294 0.5
308 1 0.925915 0.446066 0.5
274 1 0.58018 0.344749 0.5
295 1 0.604435 0.394401 0.5
276 1 0.629021 0.347351 0.5
278 1 0.677836 0.345811 0.5
297 1 0.654663 0.397022 0.5
280 1 0.726571 0.345918 0.5
299 1 0.703706 0.393885 0.5
282 1 0.776663 0.34846 0.5
301 1 0.753427 0.396856 0.5
303 1 0.80391 0.395232 0.5
284 1 0.827875 0.344495 0.5
305 1 0.851844 0.392082 0.5
286 1 0.875947 0.345059 0.5
288 1 0.923954 0.346524 0.5
307 1 0.900594 0.397315 0.5
290 1 0.974789 0.346507 0.5
309 1 0.95011 0.397378 0.5
310 1 0.97475 0.446911 0.5
292 1 0.526077 0.441734 0.5
313 1 0.549238 0.491039 0.5
294 1 0.575986 0.442802 0.5
315 1 0.601627 0.489624 0.5
296 1 0.628019 0.442963 0.5
298 1 0.679018 0.443083 0.5
317 1 0.653827 0.49115 0.5
300 1 0.727485 0.443158 0.5
319 1 0.702585 0.491623 0.5
321 1 0.751784 0.491408 0.5
302 1 0.779502 0.44266 0.5
323 1 0.803649 0.494225 0.5
306 1 0.875913 0.444099 0.5
325 1 0.852599 0.494953 0.5
329 1 0.954111 0.49845 0.5
291 1 0.504232 0.390706 0.5
251 1 0.500293 0.196084 0.5
271 1 0.504019 0.297167 0.5
41 1 0.999337 0.20036 0.5
312 1 0.522596 0.542529 0.5
314 1 0.574117 0.539765 0.5
316 1 0.628196 0.539633 0.5
318 1 0.678938 0.541779 0.5
320 1 0.727729 0.540926 0.5
322 1 0.778724 0.543266 0.5
324 1 0.829956 0.544017 0.5
326 1 0.877937 0.545482 0.5
328 1 0.927924 0.54656 0.5
330 1 0.977388 0.548141 0.5
333 1 0.552275 0.588769 0.5
332 1 0.526524 0.636418 0.5
335 1 0.601397 0.58576 0.5
334 1 0.577902 0.633271 0.5
336 1 0.630606 0.634563 0.5
337 1 0.654438 0.588415 0.5
338 1 0.67883 0.639246 0.5
339 1 0.701799 0.587723 0.5
340 1 0.729025 0.638826 0.5
341 1 0.753943 0.589848 0.5
343 1 0.803005 0.592403 0.5
342 1 0.778022 0.641143 0.5
345 1 0.853036 0.592849 0.5
344 1 0.829548 0.645342 0.5
347 1 0.901656 0.595886 0.5
346 1 0.876713 0.647054 0.5
348 1 0.922805 0.647921 0.5
349 1 0.948691 0.59684 0.5
350 1 0.970765 0.646755 0.5
201 1 0.999403 0.995232 0.5
353 1 0.553521 0.682775 0.5
352 1 0.527077 0.730802 0.5
355 1 0.604191 0.682279 0.5
354 1 0.578066 0.731123 0.5
357 1 0.656915 0.68685 0.5
356 1 0.62631 0.732384 0.5
358 1 0.675024 0.737341 0.5
359 1 0.70223 0.68806 0.5
360 1 0.724646 0.738947 0.5
361 1 0.752512 0.689461 0.5
363 1 0.799575 0.693588 0.5
362 1 0.77418 0.741577 0.5
365 1 0.848942 0.696218 0.5
364 1 0.825543 0.744824 0.5
366 1 0.876913 0.745033 0.5
367 1 0.898214 0.696233 0.5
369 1 0.950763 0.699898 0.5
410 1 0.973869 0.943487 0.5
373 1 0.551799 0.777377 0.5
375 1 0.601179 0.779677 0.5
377 1 0.648401 0.786161 0.5
379 1 0.699747 0.791453 0.5
381 1 0.74755 0.791103 0.5
383 1 0.797263 0.793673 0.5
385 1 0.847274 0.794548 0.5
368 1 0.926506 0.746703 0.5
387 1 0.898151 0.795322 0.5
370 1 0.976479 0.748974 0.5
389 1 0.948246 0.798593 0.5
372 1 0.527707 0.825254 0.5
393 1 0.550117 0.87438 0.5
374 1 0.577454 0.829581 0.5
395 1 0.600297 0.880178 0.5
376 1 0.62576 0.834313 0.5
378 1 0.674644 0.838003 0.5
397 1 0.650377 0.885501 0.5
380 1 0.724293 0.842179 0.5
399 1 0.699943 0.891622 0.5
382 1 0.774358 0.84148 0.5
401 1 0.748978 0.8931 0.5
403 1 0.796891 0.890884 0.5
384 1 0.822648 0.843553 0.5
405 1 0.84947 0.896089 0.5
386 1 0.870947 0.845654 0.5
388 1 0.918132 0.84367 0.5
407 1 0.898163 0.896935 0.5
390 1 0.973447 0.848854 0.5
409 1 0.944659 0.893806 0.5
392 1 0.522786 0.918263 0.5
412 1 0.545578 0.965171 0.5
394 1 0.573058 0.9235 0.5
413 1 0.593775 0.980902 0.5
396 1 0.621286 0.931443 0.5
398 1 0.670323 0.938143 0.5
414 1 0.643681 0.982174 0.5
415 1 0.692074 0.990216 0.5
400 1 0.721451 0.943516 0.5
416 1 0.743535 0.991204 0.5
417 1 0.793907 0.995946 0.5
402 1 0.772496 0.942711 0.5
418 1 0.847919 0.993585 0.5
404 1 0.820504 0.948568 0.5
406 1 0.872233 0.945649 0.5
419 1 0.896985 0.994108 0.5
408 1 0.923138 0.945147 0.5
420 1 0.948737 0.993155 0.5
371 1 0.500861 0.778474 0.5
121 1 0.997062 0.595943 0.5
141 1 0.998224 0.696858 0.5
351 1 0.500997 0.681744 0.5
391 1 0.500392 0.870491 0.5
331 1 0.501101 0.592357 0.5
161 1 0.997255 0.799174 0.5
