ITEM: TIMESTEP
52250
ITEM: NUMBER OF ATOMS
420
ITEM: BOX BOUNDS pp ss pp
0.0000000000000000e+00 2.2653923264628304e+01
-1.9618873042551413e-03 2.0489023222821416e+01
-2.8317404080785380e-01 2.8317404080785380e-01
ITEM: ATOMS id type xs ys zs
1 2 0 9.57439e-05 0.5
2 2 0.025 0.0479677 0.5
3 2 0.05 9.57439e-05 0.5
4 2 0.075 0.0479677 0.5
5 2 0.1 9.57439e-05 0.5
6 2 0.125 0.0479677 0.5
7 2 0.15 9.57439e-05 0.5
8 2 0.175 0.0479677 0.5
9 2 0.2 9.57439e-05 0.5
10 2 0.225 0.0479677 0.5
11 2 0.25 9.57439e-05 0.5
12 2 0.275 0.0479677 0.5
13 2 0.3 9.57439e-05 0.5
14 2 0.325 0.0479677 0.5
15 2 0.35 9.57439e-05 0.5
16 2 0.375 0.0479677 0.5
17 2 0.4 9.57439e-05 0.5
18 2 0.425 0.0479677 0.5
19 2 0.45 9.57439e-05 0.5
20 2 0.475 0.0479677 0.5
21 2 0 0.0958397 0.5
23 2 0.05 0.0958397 0.5
22 1 0.0247799 0.14192 0.5
25 2 0.1 0.0958397 0.5
24 1 0.0742338 0.143026 0.5
27 2 0.15 0.0958397 0.5
26 1 0.122621 0.143801 0.5
28 1 0.173384 0.142869 0.5
29 2 0.2 0.0958397 0.5
31 2 0.25 0.0958397 0.5
33 2 0.3 0.0958397 0.5
35 2 0.35 0.0958397 0.5
36 1 0.375636 0.14344 0.5
37 2 0.4 0.0958397 0.5
39 2 0.45 0.0958397 0.5
40 1 0.471477 0.141611 0.5
43 1 0.0480903 0.189775 0.5
41 1 0.000454437 0.190819 0.5
45 1 0.0994738 0.189258 0.5
47 1 0.146279 0.188809 0.5
30 1 0.225182 0.141964 0.5
49 1 0.199571 0.19151 0.5
51 1 0.24954 0.189139 0.5
32 1 0.274307 0.143055 0.5
53 1 0.299402 0.189609 0.5
34 1 0.32568 0.141817 0.5
55 1 0.349802 0.189242 0.5
38 1 0.423588 0.144757 0.5
57 1 0.401032 0.190716 0.5
59 1 0.44954 0.19115 0.5
42 1 0.0254531 0.23772 0.5
63 1 0.0496222 0.284595 0.5
291 1 0.500109 0.381723 0.5
44 1 0.0743125 0.237049 0.5
65 1 0.0988803 0.28182 0.5
46 1 0.124803 0.236942 0.5
48 1 0.172823 0.237376 0.5
67 1 0.150139 0.286047 0.5
50 1 0.223675 0.237863 0.5
71 1 0.250515 0.283682 0.5
52 1 0.274652 0.237336 0.5
73 1 0.302317 0.283889 0.5
54 1 0.325907 0.238267 0.5
75 1 0.353179 0.283671 0.5
56 1 0.377437 0.236106 0.5
58 1 0.424181 0.238201 0.5
77 1 0.399892 0.284018 0.5
60 1 0.473953 0.236676 0.5
79 1 0.447658 0.285824 0.5
62 1 0.0257718 0.332193 0.5
64 1 0.0751554 0.33074 0.5
66 1 0.124379 0.330444 0.5
68 1 0.175412 0.333966 0.5
69 1 0.202005 0.28534 0.5
70 1 0.223914 0.332407 0.5
72 1 0.27676 0.330105 0.5
74 1 0.324547 0.33504 0.5
76 1 0.374902 0.331483 0.5
78 1 0.42143 0.337425 0.5
80 1 0.472668 0.33217 0.5
83 1 0.048539 0.37711 0.5
82 1 0.0231578 0.427384 0.5
119 1 0.449533 0.472664 0.5
85 1 0.0995653 0.379265 0.5
84 1 0.0716683 0.424428 0.5
87 1 0.147694 0.376583 0.5
86 1 0.12563 0.423812 0.5
88 1 0.171805 0.425861 0.5
89 1 0.198809 0.380784 0.5
90 1 0.22532 0.426556 0.5
91 1 0.251574 0.37914 0.5
93 1 0.298568 0.380331 0.5
92 1 0.273698 0.42842 0.5
95 1 0.346754 0.378662 0.5
94 1 0.323747 0.429214 0.5
98 1 0.426348 0.426954 0.5
97 1 0.395596 0.382327 0.5
96 1 0.373848 0.428807 0.5
100 1 0.476236 0.425545 0.5
99 1 0.449678 0.3805 0.5
103 1 0.0488936 0.47439 0.5
251 1 0.499338 0.190131 0.5
107 1 0.101647 0.469706 0.5
109 1 0.150329 0.473218 0.5
111 1 0.19949 0.47027 0.5
112 1 0.247871 0.476101 0.5
113 1 0.29724 0.474588 0.5
115 1 0.351384 0.47536 0.5
117 1 0.399511 0.472806 0.5
271 1 0.498914 0.284943 0.5
102 1 0.0242785 0.522172 0.5
104 1 0.0527977 0.566323 0.5
105 1 0.0761339 0.520038 0.5
106 1 0.101776 0.567012 0.5
108 1 0.126289 0.519867 0.5
110 1 0.176329 0.517994 0.5
129 1 0.151599 0.566051 0.5
133 1 0.223484 0.520669 0.5
131 1 0.200393 0.567322 0.5
135 1 0.273505 0.522083 0.5
134 1 0.250175 0.567373 0.5
136 1 0.302848 0.570615 0.5
114 1 0.325787 0.5232 0.5
116 1 0.375979 0.521075 0.5
137 1 0.351659 0.568362 0.5
118 1 0.425933 0.519413 0.5
139 1 0.401552 0.565617 0.5
120 1 0.476155 0.520047 0.5
208 1 0.321878 1 0.5
123 1 0.0295043 0.615205 0.5
121 1 0.00234248 0.570969 0.5
125 1 0.0786667 0.616123 0.5
127 1 0.126001 0.614976 0.5
130 1 0.174236 0.615435 0.5
132 1 0.224472 0.614464 0.5
155 1 0.274442 0.613477 0.5
157 1 0.327299 0.614802 0.5
138 1 0.376591 0.613538 0.5
140 1 0.426034 0.611846 0.5
331 1 0.452984 0.566122 0.5
332 1 0.480308 0.614371 0.5
124 1 0.051504 0.661996 0.5
143 1 0.0281519 0.712517 0.5
122 1 0.00204874 0.662063 0.5
126 1 0.10156 0.663885 0.5
145 1 0.0747482 0.711807 0.5
147 1 0.125642 0.709624 0.5
128 1 0.150573 0.663353 0.5
149 1 0.177768 0.710507 0.5
151 1 0.201609 0.663307 0.5
152 1 0.22649 0.707211 0.5
153 1 0.251732 0.662073 0.5
156 1 0.302906 0.661232 0.5
154 1 0.275931 0.707276 0.5
158 1 0.353701 0.663838 0.5
179 1 0.379843 0.708483 0.5
159 1 0.402465 0.660045 0.5
160 1 0.428888 0.707369 0.5
351 1 0.454612 0.662031 0.5
352 1 0.478853 0.70691 0.5
144 1 0.0513319 0.759257 0.5
207 1 0.275093 0.998689 0.5
146 1 0.102924 0.757131 0.5
148 1 0.152223 0.756776 0.5
150 1 0.201861 0.756841 0.5
173 1 0.251288 0.757385 0.5
175 1 0.302748 0.754707 0.5
177 1 0.330415 0.709774 0.5
178 1 0.352945 0.756144 0.5
180 1 0.403448 0.756744 0.5
371 1 0.453397 0.755909 0.5
209 1 0.350987 0.95159 0.5
163 1 0.0260712 0.805342 0.5
164 1 0.0503431 0.85187 0.5
192 1 0.252117 0.948429 0.5
165 1 0.0788854 0.802988 0.5
166 1 0.10116 0.852573 0.5
167 1 0.124203 0.804221 0.5
169 1 0.173165 0.803165 0.5
168 1 0.149669 0.851591 0.5
171 1 0.226299 0.803364 0.5
170 1 0.20073 0.850014 0.5
174 1 0.277917 0.803362 0.5
195 1 0.302012 0.852365 0.5
172 1 0.253238 0.848615 0.5
176 1 0.32835 0.805615 0.5
197 1 0.353021 0.853504 0.5
199 1 0.37735 0.80553 0.5
391 1 0.426284 0.804695 0.5
210 1 0.401711 0.852841 0.5
411 1 0.473964 0.804554 0.5
200 1 0.450662 0.856235 0.5
183 1 0.0259521 0.89928 0.5
185 1 0.0739791 0.902141 0.5
187 1 0.12408 0.898797 0.5
189 1 0.175658 0.896731 0.5
191 1 0.22886 0.895101 0.5
193 1 0.27664 0.898391 0.5
196 1 0.327262 0.900998 0.5
198 1 0.375658 0.902343 0.5
184 1 0.0483142 0.947875 0.5
202 1 0.0240261 0.998633 0.5
182 1 0.00163089 0.945075 0.5
203 1 0.0743964 0.996493 0.5
186 1 0.0973593 0.947346 0.5
204 1 0.126081 0.98922 0.5
188 1 0.148696 0.943526 0.5
205 1 0.176688 0.994335 0.5
190 1 0.199514 0.94254 0.5
206 1 0.224566 0.994945 0.5
194 1 0.299566 0.948547 0.5
162 1 0.00291373 0.853093 0.5
142 1 0.000231733 0.759942 0.5
211 2 0.5 9.57439e-05 0.5
212 2 0.525 0.0479677 0.5
213 2 0.55 9.57439e-05 0.5
214 2 0.575 0.0479677 0.5
215 2 0.6 9.57439e-05 0.5
216 2 0.625 0.0479677 0.5
217 2 0.65 9.57439e-05 0.5
218 2 0.675 0.0479677 0.5
219 2 0.7 9.57439e-05 0.5
220 2 0.725 0.0479677 0.5
221 2 0.75 9.57439e-05 0.5
222 2 0.775 0.0479677 0.5
223 2 0.8 9.57439e-05 0.5
224 2 0.825 0.0479677 0.5
225 2 0.85 9.57439e-05 0.5
226 2 0.875 0.0479677 0.5
227 2 0.9 9.57439e-05 0.5
228 2 0.925 0.0479677 0.5
229 2 0.95 9.57439e-05 0.5
230 2 0.975 0.0479677 0.5
231 2 0.5 0.0958397 0.5
233 2 0.55 0.0958397 0.5
232 1 0.523449 0.142057 0.5
235 2 0.6 0.0958397 0.5
237 2 0.65 0.0958397 0.5
239 2 0.7 0.0958397 0.5
241 2 0.75 0.0958397 0.5
243 2 0.8 0.0958397 0.5
245 2 0.85 0.0958397 0.5
244 1 0.826857 0.141445 0.5
247 2 0.9 0.0958397 0.5
248 1 0.924081 0.143369 0.5
246 1 0.876842 0.143211 0.5
249 2 0.95 0.0958397 0.5
250 1 0.973253 0.14399 0.5
253 1 0.548768 0.189025 0.5
329 1 0.948168 0.471825 0.5
234 1 0.57401 0.142687 0.5
255 1 0.598733 0.189595 0.5
236 1 0.62383 0.144148 0.5
238 1 0.672551 0.140804 0.5
257 1 0.651569 0.187635 0.5
240 1 0.723998 0.141642 0.5
259 1 0.697368 0.184937 0.5
242 1 0.77485 0.141452 0.5
261 1 0.75302 0.18827 0.5
263 1 0.803125 0.187325 0.5
265 1 0.853181 0.188402 0.5
267 1 0.90201 0.189955 0.5
269 1 0.949987 0.187587 0.5
252 1 0.522873 0.237594 0.5
273 1 0.552916 0.284115 0.5
327 1 0.897364 0.471678 0.5
254 1 0.575862 0.236958 0.5
275 1 0.603507 0.282357 0.5
256 1 0.628995 0.236191 0.5
258 1 0.675437 0.233873 0.5
260 1 0.723678 0.232848 0.5
262 1 0.774867 0.235682 0.5
264 1 0.822832 0.234783 0.5
285 1 0.848559 0.28283 0.5
266 1 0.871906 0.23658 0.5
268 1 0.926139 0.236126 0.5
287 1 0.900395 0.282306 0.5
270 1 0.975989 0.235368 0.5
289 1 0.949147 0.28221 0.5
272 1 0.521936 0.330549 0.5
274 1 0.574363 0.33106 0.5
276 1 0.627479 0.333155 0.5
277 1 0.651877 0.286513 0.5
278 1 0.676395 0.327486 0.5
279 1 0.698621 0.280236 0.5
280 1 0.726166 0.327456 0.5
283 1 0.798651 0.280262 0.5
281 1 0.749905 0.280555 0.5
282 1 0.77684 0.328358 0.5
284 1 0.826802 0.331199 0.5
286 1 0.87316 0.33139 0.5
288 1 0.925831 0.33022 0.5
290 1 0.972638 0.33314 0.5
293 1 0.549254 0.376562 0.5
311 1 0.50101 0.475729 0.5
295 1 0.603779 0.379046 0.5
296 1 0.627295 0.422827 0.5
297 1 0.654352 0.377527 0.5
298 1 0.679553 0.422621 0.5
299 1 0.702431 0.374781 0.5
300 1 0.72719 0.423155 0.5
301 1 0.751191 0.375814 0.5
303 1 0.79974 0.37568 0.5
302 1 0.777329 0.422961 0.5
305 1 0.85005 0.376911 0.5
308 1 0.920536 0.42554 0.5
307 1 0.897686 0.375608 0.5
306 1 0.874213 0.423373 0.5
310 1 0.972422 0.425916 0.5
309 1 0.950144 0.378024 0.5
292 1 0.526103 0.428396 0.5
313 1 0.551843 0.473434 0.5
294 1 0.577972 0.426513 0.5
315 1 0.60495 0.471545 0.5
317 1 0.653428 0.469465 0.5
319 1 0.702055 0.474123 0.5
323 1 0.799919 0.472887 0.5
321 1 0.751977 0.470364 0.5
304 1 0.826259 0.425662 0.5
325 1 0.847867 0.473656 0.5
61 1 0.999606 0.285102 0.5
101 1 0.999278 0.47411 0.5
81 1 0.998848 0.379774 0.5
312 1 0.526642 0.518847 0.5
335 1 0.550886 0.567118 0.5
314 1 0.575095 0.521132 0.5
336 1 0.600729 0.566943 0.5
316 1 0.622969 0.519402 0.5
318 1 0.674115 0.521498 0.5
337 1 0.648254 0.566328 0.5
320 1 0.726211 0.517195 0.5
339 1 0.698308 0.566114 0.5
322 1 0.773227 0.52006 0.5
343 1 0.796776 0.56655 0.5
324 1 0.824492 0.520513 0.5
345 1 0.854458 0.565201 0.5
326 1 0.87286 0.518985 0.5
328 1 0.926355 0.518897 0.5
347 1 0.901584 0.567643 0.5
330 1 0.975015 0.519896 0.5
349 1 0.952159 0.566341 0.5
334 1 0.52735 0.613961 0.5
355 1 0.575483 0.615469 0.5
357 1 0.625474 0.612471 0.5
338 1 0.674986 0.614424 0.5
340 1 0.72465 0.612357 0.5
341 1 0.749287 0.567174 0.5
342 1 0.776375 0.613755 0.5
344 1 0.825761 0.612533 0.5
346 1 0.875956 0.612948 0.5
348 1 0.92737 0.613011 0.5
350 1 0.977685 0.615411 0.5
354 1 0.551565 0.662631 0.5
373 1 0.525983 0.707127 0.5
201 1 0.974259 0.994369 0.5
356 1 0.597427 0.661708 0.5
375 1 0.576216 0.710531 0.5
358 1 0.649581 0.661606 0.5
379 1 0.673516 0.707535 0.5
377 1 0.626063 0.708769 0.5
359 1 0.698364 0.659318 0.5
360 1 0.724108 0.706166 0.5
361 1 0.750812 0.660808 0.5
363 1 0.801385 0.659168 0.5
362 1 0.775441 0.707332 0.5
365 1 0.851257 0.662097 0.5
364 1 0.825075 0.707233 0.5
367 1 0.90066 0.657188 0.5
366 1 0.879833 0.708939 0.5
368 1 0.92986 0.70616 0.5
369 1 0.953583 0.660694 0.5
141 1 0.978704 0.709699 0.5
374 1 0.552088 0.757254 0.5
376 1 0.603937 0.756197 0.5
378 1 0.652222 0.753625 0.5
380 1 0.701419 0.755306 0.5
381 1 0.749779 0.755816 0.5
383 1 0.800888 0.757664 0.5
385 1 0.853752 0.755466 0.5
387 1 0.901892 0.756724 0.5
370 1 0.951575 0.754924 0.5
393 1 0.528877 0.805491 0.5
412 1 0.554127 0.852706 0.5
410 1 0.951223 0.948101 0.5
394 1 0.575696 0.799993 0.5
413 1 0.600943 0.849115 0.5
395 1 0.627217 0.805216 0.5
397 1 0.675088 0.80106 0.5
401 1 0.727409 0.801831 0.5
399 1 0.699823 0.848433 0.5
382 1 0.775064 0.803503 0.5
400 1 0.75243 0.848195 0.5
384 1 0.825078 0.804039 0.5
405 1 0.851078 0.85091 0.5
386 1 0.874096 0.802366 0.5
389 1 0.927464 0.805519 0.5
388 1 0.899423 0.853581 0.5
161 1 0.977654 0.806557 0.5
390 1 0.949477 0.855404 0.5
396 1 0.650315 0.850846 0.5
414 1 0.674858 0.897799 0.5
398 1 0.72595 0.895964 0.5
403 1 0.801375 0.850005 0.5
402 1 0.777005 0.898044 0.5
404 1 0.826205 0.897853 0.5
407 1 0.874152 0.898203 0.5
409 1 0.924893 0.900935 0.5
181 1 0.975848 0.899865 0.5
415 1 0.750687 0.943641 0.5
417 1 0.798747 0.94581 0.5
416 1 0.772945 0.993236 0.5
406 1 0.848789 0.945727 0.5
418 1 0.821476 0.99564 0.5
408 1 0.896288 0.945505 0.5
419 1 0.874365 0.992818 0.5
420 1 0.922995 0.992734 0.5
333 1 0.503609 0.565482 0.5
392 1 0.50077 0.851561 0.5
353 1 0.504068 0.660367 0.5
372 1 0.502938 0.757596 0.5
