ITEM: TIMESTEP
34750
ITEM: NUMBER OF ATOMS
420
ITEM: BOX BOUNDS pp ss pp
0.0000000000000000e+00 2.2653923264628304e+01
-1.9618873042551413e-03 2.0600400175712419e+01
-2.8317404080785380e-01 2.8317404080785380e-01
ITEM: ATOMS id type xs ys zs
1 2 0 9.52263e-05 0.5
2 2 0.025 0.0477084 0.5
3 2 0.05 9.52263e-05 0.5
4 2 0.075 0.0477084 0.5
5 2 0.1 9.52263e-05 0.5
6 2 0.125 0.0477084 0.5
7 2 0.15 9.52263e-05 0.5
8 2 0.175 0.0477084 0.5
9 2 0.2 9.52263e-05 0.5
10 2 0.225 0.0477084 0.5
11 2 0.25 9.52263e-05 0.5
12 2 0.275 0.0477084 0.5
13 2 0.3 9.52263e-05 0.5
14 2 0.325 0.0477084 0.5
15 2 0.35 9.52263e-05 0.5
16 2 0.375 0.0477084 0.5
17 2 0.4 9.52263e-05 0.5
18 2 0.425 0.0477084 0.5
19 2 0.45 9.52263e-05 0.5
20 2 0.475 0.0477084 0.5
21 2 0 0.0953216 0.5
23 2 0.05 0.0953216 0.5
22 1 0.0241298 0.142066 0.5
25 2 0.1 0.0953216 0.5
24 1 0.0731596 0.140851 0.5
26 1 0.126895 0.141873 0.5
27 2 0.15 0.0953216 0.5
28 1 0.175682 0.143517 0.5
29 2 0.2 0.0953216 0.5
30 1 0.225742 0.142674 0.5
31 2 0.25 0.0953216 0.5
33 2 0.3 0.0953216 0.5
32 1 0.27657 0.142553 0.5
35 2 0.35 0.0953216 0.5
34 1 0.325842 0.143795 0.5
36 1 0.375637 0.142532 0.5
37 2 0.4 0.0953216 0.5
38 1 0.427133 0.143171 0.5
39 2 0.45 0.0953216 0.5
40 1 0.475462 0.142584 0.5
43 1 0.0473277 0.188166 0.5
45 1 0.0960698 0.187601 0.5
47 1 0.148769 0.191736 0.5
49 1 0.201052 0.188684 0.5
51 1 0.251948 0.189236 0.5
53 1 0.301688 0.191182 0.5
55 1 0.351123 0.191547 0.5
57 1 0.402369 0.188729 0.5
59 1 0.45203 0.190157 0.5
42 1 0.023317 0.237092 0.5
63 1 0.0478984 0.285227 0.5
44 1 0.0718699 0.238437 0.5
65 1 0.0987717 0.28747 0.5
46 1 0.121914 0.236844 0.5
48 1 0.177151 0.237193 0.5
67 1 0.14775 0.285088 0.5
50 1 0.224696 0.238381 0.5
69 1 0.200638 0.287505 0.5
71 1 0.249976 0.284381 0.5
52 1 0.275955 0.236708 0.5
73 1 0.298755 0.28579 0.5
54 1 0.327478 0.238453 0.5
75 1 0.347199 0.286084 0.5
56 1 0.376064 0.239109 0.5
58 1 0.425301 0.237493 0.5
77 1 0.398047 0.286612 0.5
60 1 0.477648 0.237992 0.5
79 1 0.449754 0.284441 0.5
119 1 0.448421 0.473817 0.5
62 1 0.0275747 0.333815 0.5
64 1 0.077988 0.336052 0.5
66 1 0.126026 0.332487 0.5
68 1 0.176084 0.332711 0.5
70 1 0.22742 0.334149 0.5
72 1 0.274367 0.334861 0.5
74 1 0.325504 0.332564 0.5
76 1 0.374908 0.333821 0.5
78 1 0.425528 0.334509 0.5
80 1 0.47398 0.332292 0.5
83 1 0.0511 0.380972 0.5
82 1 0.0260252 0.425823 0.5
85 1 0.10449 0.38133 0.5
84 1 0.0774881 0.429592 0.5
86 1 0.125489 0.42791 0.5
87 1 0.15269 0.380653 0.5
88 1 0.175732 0.427192 0.5
89 1 0.20162 0.38019 0.5
90 1 0.223429 0.428371 0.5
91 1 0.249873 0.384038 0.5
93 1 0.300413 0.380451 0.5
92 1 0.272561 0.430278 0.5
95 1 0.348132 0.38203 0.5
94 1 0.322594 0.431689 0.5
96 1 0.371881 0.427394 0.5
97 1 0.399358 0.382804 0.5
98 1 0.423976 0.428073 0.5
99 1 0.44997 0.38219 0.5
100 1 0.475562 0.426703 0.5
291 1 0.499168 0.376817 0.5
103 1 0.0482821 0.474496 0.5
107 1 0.0975088 0.47376 0.5
109 1 0.14975 0.472472 0.5
112 1 0.248826 0.478975 0.5
111 1 0.200131 0.474667 0.5
271 1 0.499034 0.28789 0.5
113 1 0.297438 0.478671 0.5
115 1 0.347953 0.476911 0.5
117 1 0.395412 0.478488 0.5
81 1 0.00169421 0.37839 0.5
311 1 0.497682 0.475096 0.5
104 1 0.0480673 0.570997 0.5
102 1 0.0232354 0.521743 0.5
106 1 0.09947 0.570175 0.5
105 1 0.0735126 0.523078 0.5
108 1 0.124085 0.521716 0.5
110 1 0.174891 0.520004 0.5
129 1 0.14977 0.570639 0.5
131 1 0.198298 0.571837 0.5
134 1 0.248114 0.57204 0.5
136 1 0.295243 0.571976 0.5
135 1 0.273515 0.526742 0.5
137 1 0.345391 0.575304 0.5
116 1 0.370942 0.527751 0.5
208 1 0.316039 0.996159 0.5
139 1 0.399532 0.574373 0.5
118 1 0.422683 0.524558 0.5
120 1 0.470144 0.523393 0.5
190 1 0.198122 0.948466 0.5
331 1 0.448813 0.571412 0.5
123 1 0.0207496 0.616023 0.5
127 1 0.122276 0.616846 0.5
125 1 0.0719916 0.615566 0.5
128 1 0.148177 0.661581 0.5
130 1 0.173753 0.617838 0.5
151 1 0.196786 0.665507 0.5
132 1 0.222825 0.619733 0.5
153 1 0.249027 0.666483 0.5
155 1 0.273396 0.620738 0.5
156 1 0.296695 0.667869 0.5
157 1 0.320904 0.622496 0.5
138 1 0.370479 0.620766 0.5
158 1 0.350122 0.66498 0.5
140 1 0.423056 0.622488 0.5
332 1 0.472165 0.622368 0.5
124 1 0.044145 0.663418 0.5
143 1 0.0216094 0.710965 0.5
145 1 0.069431 0.711146 0.5
126 1 0.0919864 0.662448 0.5
149 1 0.168989 0.712873 0.5
147 1 0.119193 0.706221 0.5
152 1 0.22212 0.711171 0.5
154 1 0.273388 0.713127 0.5
177 1 0.324674 0.71028 0.5
179 1 0.372977 0.715552 0.5
159 1 0.399517 0.666331 0.5
160 1 0.422201 0.716894 0.5
392 1 0.499729 0.85834 0.5
351 1 0.44609 0.671042 0.5
352 1 0.46969 0.718633 0.5
144 1 0.0443067 0.758362 0.5
163 1 0.0178615 0.804612 0.5
114 1 0.322435 0.524084 0.5
146 1 0.0958151 0.757138 0.5
148 1 0.142268 0.759127 0.5
150 1 0.197105 0.757759 0.5
171 1 0.219908 0.80452 0.5
173 1 0.246291 0.757031 0.5
174 1 0.271898 0.808534 0.5
175 1 0.296522 0.759497 0.5
176 1 0.320249 0.806861 0.5
178 1 0.347108 0.762121 0.5
199 1 0.373861 0.813191 0.5
180 1 0.398014 0.765187 0.5
391 1 0.424507 0.812252 0.5
353 1 0.49762 0.671639 0.5
371 1 0.447922 0.764166 0.5
411 1 0.475325 0.809555 0.5
164 1 0.0439199 0.854352 0.5
207 1 0.268867 0.999835 0.5
165 1 0.0681754 0.805095 0.5
166 1 0.0927334 0.852522 0.5
167 1 0.118421 0.809009 0.5
168 1 0.143919 0.855674 0.5
169 1 0.171247 0.802933 0.5
172 1 0.246311 0.853825 0.5
170 1 0.193502 0.85035 0.5
195 1 0.296653 0.8556 0.5
197 1 0.346214 0.856361 0.5
210 1 0.401501 0.865433 0.5
133 1 0.224835 0.525406 0.5
200 1 0.451783 0.855511 0.5
183 1 0.0198182 0.898332 0.5
184 1 0.0451357 0.942821 0.5
185 1 0.0697156 0.897912 0.5
187 1 0.116992 0.900047 0.5
189 1 0.171352 0.904826 0.5
191 1 0.218407 0.898894 0.5
193 1 0.266439 0.900216 0.5
194 1 0.293625 0.947971 0.5
196 1 0.32215 0.901827 0.5
209 1 0.345564 0.947705 0.5
198 1 0.369629 0.902997 0.5
202 1 0.023998 0.997387 0.5
203 1 0.0714049 0.993375 0.5
186 1 0.0935607 0.943472 0.5
204 1 0.120176 0.999069 0.5
188 1 0.145764 0.950679 0.5
205 1 0.169612 0.999912 0.5
192 1 0.24656 0.948184 0.5
206 1 0.218777 0.996498 0.5
333 1 0.499117 0.571189 0.5
372 1 0.496878 0.762243 0.5
211 2 0.5 9.52263e-05 0.5
212 2 0.525 0.0477084 0.5
213 2 0.55 9.52263e-05 0.5
214 2 0.575 0.0477084 0.5
215 2 0.6 9.52263e-05 0.5
216 2 0.625 0.0477084 0.5
217 2 0.65 9.52263e-05 0.5
218 2 0.675 0.0477084 0.5
219 2 0.7 9.52263e-05 0.5
220 2 0.725 0.0477084 0.5
221 2 0.75 9.52263e-05 0.5
222 2 0.775 0.0477084 0.5
223 2 0.8 9.52263e-05 0.5
224 2 0.825 0.0477084 0.5
225 2 0.85 9.52263e-05 0.5
226 2 0.875 0.0477084 0.5
227 2 0.9 9.52263e-05 0.5
228 2 0.925 0.0477084 0.5
229 2 0.95 9.52263e-05 0.5
230 2 0.975 0.0477084 0.5
231 2 0.5 0.0953216 0.5
233 2 0.55 0.0953216 0.5
232 1 0.525643 0.142595 0.5
235 2 0.6 0.0953216 0.5
234 1 0.575037 0.140482 0.5
236 1 0.624991 0.142327 0.5
237 2 0.65 0.0953216 0.5
238 1 0.672324 0.140735 0.5
239 2 0.7 0.0953216 0.5
240 1 0.722335 0.141365 0.5
241 2 0.75 0.0953216 0.5
243 2 0.8 0.0953216 0.5
242 1 0.773815 0.142266 0.5
245 2 0.85 0.0953216 0.5
244 1 0.827 0.14072 0.5
246 1 0.87544 0.142354 0.5
247 2 0.9 0.0953216 0.5
248 1 0.925224 0.142065 0.5
249 2 0.95 0.0953216 0.5
250 1 0.973452 0.140867 0.5
253 1 0.549846 0.188407 0.5
329 1 0.951751 0.472734 0.5
255 1 0.6007 0.191248 0.5
257 1 0.649917 0.18863 0.5
259 1 0.699268 0.187766 0.5
261 1 0.75025 0.188232 0.5
263 1 0.799022 0.185702 0.5
265 1 0.849425 0.186403 0.5
267 1 0.900024 0.188015 0.5
269 1 0.946353 0.189896 0.5
325 1 0.852099 0.46931 0.5
252 1 0.524926 0.235087 0.5
273 1 0.550218 0.285557 0.5
254 1 0.574742 0.235103 0.5
275 1 0.598765 0.283899 0.5
256 1 0.62526 0.239325 0.5
258 1 0.676029 0.233345 0.5
277 1 0.651385 0.283359 0.5
260 1 0.725045 0.235117 0.5
279 1 0.701609 0.281279 0.5
281 1 0.753378 0.282178 0.5
262 1 0.776538 0.235661 0.5
283 1 0.801011 0.283597 0.5
264 1 0.826081 0.233461 0.5
285 1 0.84863 0.284798 0.5
266 1 0.873787 0.237083 0.5
268 1 0.925688 0.238107 0.5
287 1 0.899564 0.283091 0.5
270 1 0.975113 0.235672 0.5
289 1 0.953155 0.283953 0.5
327 1 0.9012 0.469784 0.5
272 1 0.523699 0.331407 0.5
274 1 0.573659 0.333951 0.5
276 1 0.625112 0.328598 0.5
278 1 0.677361 0.327628 0.5
280 1 0.726575 0.331995 0.5
282 1 0.77714 0.330724 0.5
284 1 0.826273 0.330122 0.5
286 1 0.876432 0.330465 0.5
288 1 0.929762 0.329699 0.5
290 1 0.979079 0.331597 0.5
293 1 0.549431 0.379503 0.5
292 1 0.523344 0.425334 0.5
294 1 0.573129 0.422475 0.5
295 1 0.601423 0.378797 0.5
296 1 0.624801 0.425942 0.5
297 1 0.649711 0.378383 0.5
298 1 0.674203 0.427415 0.5
299 1 0.699241 0.376368 0.5
300 1 0.722529 0.424851 0.5
301 1 0.74977 0.377602 0.5
303 1 0.799961 0.375149 0.5
302 1 0.772159 0.421884 0.5
305 1 0.850221 0.379321 0.5
304 1 0.822125 0.423145 0.5
306 1 0.875607 0.423343 0.5
307 1 0.900667 0.376369 0.5
308 1 0.92685 0.424597 0.5
323 1 0.797848 0.471418 0.5
309 1 0.952498 0.377487 0.5
310 1 0.97417 0.424323 0.5
313 1 0.547754 0.471047 0.5
315 1 0.598409 0.473405 0.5
317 1 0.649064 0.475272 0.5
319 1 0.697015 0.475149 0.5
321 1 0.745179 0.470082 0.5
41 1 0.998093 0.186695 0.5
101 1 0.999117 0.473509 0.5
251 1 0.501026 0.187291 0.5
61 1 0.999266 0.283847 0.5
335 1 0.547676 0.569599 0.5
312 1 0.522116 0.519412 0.5
314 1 0.570071 0.521458 0.5
316 1 0.620233 0.521369 0.5
336 1 0.596176 0.570591 0.5
337 1 0.645416 0.566344 0.5
318 1 0.671336 0.522404 0.5
339 1 0.698017 0.566053 0.5
320 1 0.72143 0.521308 0.5
341 1 0.747736 0.566299 0.5
343 1 0.797078 0.564169 0.5
322 1 0.772115 0.516381 0.5
324 1 0.824778 0.51899 0.5
345 1 0.848633 0.566218 0.5
326 1 0.874277 0.51766 0.5
347 1 0.895766 0.566227 0.5
328 1 0.924964 0.516752 0.5
349 1 0.949765 0.564982 0.5
330 1 0.974143 0.519696 0.5
162 1 0.994716 0.850271 0.5
334 1 0.521031 0.617516 0.5
355 1 0.571233 0.620014 0.5
357 1 0.623402 0.615138 0.5
338 1 0.671385 0.613035 0.5
340 1 0.721379 0.612128 0.5
342 1 0.772013 0.613096 0.5
344 1 0.82284 0.613863 0.5
346 1 0.873749 0.615776 0.5
348 1 0.922177 0.613923 0.5
350 1 0.971424 0.614396 0.5
373 1 0.523651 0.716753 0.5
354 1 0.546084 0.665251 0.5
356 1 0.597839 0.664698 0.5
375 1 0.574321 0.712929 0.5
377 1 0.625294 0.707641 0.5
358 1 0.649615 0.663158 0.5
379 1 0.672928 0.710783 0.5
359 1 0.697925 0.663137 0.5
361 1 0.746598 0.659418 0.5
360 1 0.724405 0.711928 0.5
363 1 0.796029 0.66239 0.5
362 1 0.770924 0.711048 0.5
365 1 0.844529 0.662732 0.5
364 1 0.817933 0.709937 0.5
366 1 0.869949 0.709481 0.5
367 1 0.897589 0.661146 0.5
368 1 0.919834 0.709642 0.5
369 1 0.946124 0.661654 0.5
141 1 0.969865 0.710517 0.5
201 1 0.973463 0.997397 0.5
374 1 0.548575 0.759705 0.5
393 1 0.523728 0.81103 0.5
376 1 0.597008 0.756724 0.5
394 1 0.57437 0.804009 0.5
395 1 0.622971 0.803764 0.5
378 1 0.646005 0.757661 0.5
397 1 0.670201 0.803564 0.5
380 1 0.697298 0.756302 0.5
401 1 0.718167 0.806262 0.5
381 1 0.746272 0.760949 0.5
383 1 0.794794 0.758541 0.5
382 1 0.772691 0.80596 0.5
384 1 0.822298 0.806495 0.5
385 1 0.843325 0.755191 0.5
386 1 0.869289 0.801765 0.5
387 1 0.892602 0.756577 0.5
389 1 0.920454 0.801865 0.5
370 1 0.944621 0.755024 0.5
161 1 0.969076 0.803885 0.5
412 1 0.555372 0.85738 0.5
413 1 0.601751 0.851323 0.5
396 1 0.647933 0.850577 0.5
399 1 0.69707 0.853043 0.5
400 1 0.745271 0.852886 0.5
403 1 0.79556 0.854172 0.5
405 1 0.84772 0.853012 0.5
388 1 0.895234 0.851721 0.5
390 1 0.945455 0.851276 0.5
414 1 0.670943 0.899388 0.5
398 1 0.721913 0.898349 0.5
415 1 0.742982 0.947574 0.5
402 1 0.771213 0.901295 0.5
417 1 0.795554 0.948812 0.5
404 1 0.822358 0.900335 0.5
407 1 0.870147 0.900593 0.5
406 1 0.84515 0.948437 0.5
408 1 0.896309 0.949562 0.5
409 1 0.92029 0.901035 0.5
410 1 0.94663 0.946932 0.5
182 1 0.993732 0.94443 0.5
181 1 0.971683 0.898903 0.5
416 1 0.769425 0.991821 0.5
418 1 0.817744 0.998039 0.5
419 1 0.872631 0.995578 0.5
420 1 0.920905 0.994155 0.5
142 1 0.996396 0.757191 0.5
121 1 0.997462 0.567616 0.5
122 1 0.994011 0.664105 0.5
