ITEM: TIMESTEP
28000
ITEM: NUMBER OF ATOMS
420
ITEM: BOX BOUNDS pp ss pp
0.0000000000000000e+00 2.2653923264628304e+01
-1.9618873042551413e-03 2.1340477669678023e+01
-2.8317404080785380e-01 2.8317404080785380e-01
ITEM: ATOMS id type xs ys zs
1 2 0 9.19242e-05 0.5
2 2 0.025 0.046054 0.5
3 2 0.05 9.19242e-05 0.5
4 2 0.075 0.046054 0.5
5 2 0.1 9.19242e-05 0.5
6 2 0.125 0.046054 0.5
7 2 0.15 9.19242e-05 0.5
8 2 0.175 0.046054 0.5
9 2 0.2 9.19242e-05 0.5
10 2 0.225 0.046054 0.5
11 2 0.25 9.19242e-05 0.5
12 2 0.275 0.046054 0.5
13 2 0.3 9.19242e-05 0.5
14 2 0.325 0.046054 0.5
15 2 0.35 9.19242e-05 0.5
16 2 0.375 0.046054 0.5
17 2 0.4 9.19242e-05 0.5
18 2 0.425 0.046054 0.5
19 2 0.45 9.19242e-05 0.5
20 2 0.475 0.046054 0.5
21 2 0 0.0920162 0.5
23 2 0.05 0.0920162 0.5
22 1 0.0235811 0.135196 0.5
25 2 0.1 0.0920162 0.5
24 1 0.0737869 0.137618 0.5
26 1 0.122036 0.135942 0.5
27 2 0.15 0.0920162 0.5
28 1 0.170759 0.138548 0.5
29 2 0.2 0.0920162 0.5
30 1 0.22148 0.134271 0.5
31 2 0.25 0.0920162 0.5
33 2 0.3 0.0920162 0.5
32 1 0.273074 0.135153 0.5
35 2 0.35 0.0920162 0.5
34 1 0.327368 0.135849 0.5
36 1 0.377306 0.136919 0.5
37 2 0.4 0.0920162 0.5
38 1 0.42579 0.137603 0.5
39 2 0.45 0.0920162 0.5
40 1 0.476183 0.13809 0.5
43 1 0.0458281 0.18007 0.5
45 1 0.0963691 0.183028 0.5
47 1 0.144136 0.180417 0.5
49 1 0.19521 0.180848 0.5
51 1 0.245349 0.179295 0.5
53 1 0.297829 0.180231 0.5
55 1 0.349977 0.179177 0.5
57 1 0.399951 0.181622 0.5
59 1 0.449979 0.182076 0.5
311 1 0.492824 0.450975 0.5
42 1 0.02069 0.226006 0.5
63 1 0.0444198 0.268903 0.5
44 1 0.0704937 0.223489 0.5
65 1 0.0951825 0.268635 0.5
46 1 0.120396 0.225593 0.5
48 1 0.167523 0.222917 0.5
67 1 0.144649 0.270097 0.5
50 1 0.219775 0.224445 0.5
69 1 0.192103 0.266752 0.5
71 1 0.245186 0.26571 0.5
52 1 0.270617 0.221666 0.5
73 1 0.297343 0.264041 0.5
54 1 0.323915 0.221583 0.5
75 1 0.346544 0.267903 0.5
56 1 0.371382 0.223413 0.5
58 1 0.423904 0.225462 0.5
77 1 0.394821 0.267268 0.5
60 1 0.472839 0.226696 0.5
79 1 0.447823 0.270218 0.5
120 1 0.462076 0.488247 0.5
62 1 0.0168471 0.317021 0.5
83 1 0.0418817 0.360949 0.5
64 1 0.0654541 0.313575 0.5
66 1 0.118947 0.313439 0.5
85 1 0.0917745 0.358442 0.5
68 1 0.169114 0.315919 0.5
87 1 0.143941 0.35815 0.5
70 1 0.216996 0.308722 0.5
91 1 0.242216 0.35316 0.5
89 1 0.192701 0.358951 0.5
72 1 0.267671 0.309328 0.5
93 1 0.29149 0.352159 0.5
74 1 0.318123 0.30943 0.5
95 1 0.343351 0.351948 0.5
76 1 0.368994 0.31044 0.5
78 1 0.418131 0.31068 0.5
80 1 0.47173 0.313194 0.5
82 1 0.0190222 0.405569 0.5
86 1 0.115974 0.401653 0.5
84 1 0.0686609 0.404495 0.5
88 1 0.165483 0.406728 0.5
90 1 0.218686 0.399938 0.5
92 1 0.265722 0.395968 0.5
94 1 0.317041 0.393693 0.5
96 1 0.368133 0.395545 0.5
97 1 0.396678 0.354659 0.5
98 1 0.421248 0.398272 0.5
99 1 0.446567 0.354115 0.5
100 1 0.469993 0.401188 0.5
291 1 0.495739 0.35864 0.5
103 1 0.0410253 0.450562 0.5
105 1 0.0650953 0.494568 0.5
107 1 0.0901658 0.45107 0.5
108 1 0.116516 0.494546 0.5
110 1 0.165478 0.49331 0.5
109 1 0.137981 0.449166 0.5
111 1 0.190291 0.450366 0.5
112 1 0.239293 0.45074 0.5
133 1 0.215007 0.498688 0.5
113 1 0.288689 0.437574 0.5
114 1 0.312999 0.477925 0.5
135 1 0.265841 0.494772 0.5
115 1 0.341381 0.436161 0.5
116 1 0.365225 0.479472 0.5
118 1 0.413361 0.485085 0.5
117 1 0.39345 0.440148 0.5
119 1 0.442409 0.443334 0.5
271 1 0.498311 0.271825 0.5
251 1 0.499727 0.182931 0.5
104 1 0.0410376 0.555494 0.5
208 1 0.253994 0.960075 0.5
102 1 0.0181379 0.507468 0.5
106 1 0.0888361 0.538183 0.5
129 1 0.140665 0.538032 0.5
131 1 0.18983 0.540751 0.5
134 1 0.241358 0.542034 0.5
136 1 0.293384 0.549439 0.5
137 1 0.335432 0.519802 0.5
138 1 0.3384 0.567093 0.5
139 1 0.383433 0.527054 0.5
331 1 0.430325 0.530011 0.5
333 1 0.476976 0.537441 0.5
123 1 0.0181316 0.605636 0.5
127 1 0.108766 0.581453 0.5
125 1 0.0725035 0.613526 0.5
128 1 0.122398 0.626266 0.5
130 1 0.15629 0.585539 0.5
151 1 0.170793 0.632743 0.5
132 1 0.205571 0.589134 0.5
153 1 0.223485 0.63581 0.5
155 1 0.255187 0.595052 0.5
157 1 0.30053 0.601897 0.5
156 1 0.270792 0.641725 0.5
159 1 0.353317 0.613341 0.5
140 1 0.385638 0.575715 0.5
351 1 0.403935 0.621467 0.5
332 1 0.43833 0.579374 0.5
353 1 0.453639 0.62489 0.5
334 1 0.487039 0.586078 0.5
124 1 0.0380466 0.655187 0.5
143 1 0.00722179 0.698551 0.5
126 1 0.0885172 0.66339 0.5
145 1 0.0563708 0.706492 0.5
147 1 0.104061 0.712316 0.5
149 1 0.140674 0.673929 0.5
150 1 0.153218 0.721241 0.5
152 1 0.192954 0.678901 0.5
154 1 0.238582 0.685892 0.5
177 1 0.288382 0.691362 0.5
158 1 0.318475 0.650174 0.5
179 1 0.336431 0.694694 0.5
160 1 0.369447 0.65906 0.5
352 1 0.420139 0.668015 0.5
371 1 0.38681 0.703161 0.5
372 1 0.438495 0.71258 0.5
373 1 0.469828 0.671211 0.5
144 1 0.0266103 0.745312 0.5
146 1 0.0747965 0.754099 0.5
148 1 0.125587 0.762932 0.5
171 1 0.173528 0.768985 0.5
173 1 0.202584 0.728097 0.5
174 1 0.220604 0.776143 0.5
175 1 0.252785 0.734052 0.5
176 1 0.270265 0.780469 0.5
178 1 0.305409 0.739409 0.5
180 1 0.351431 0.743392 0.5
199 1 0.319294 0.786296 0.5
200 1 0.367863 0.789179 0.5
391 1 0.40188 0.749599 0.5
393 1 0.48501 0.722443 0.5
392 1 0.45028 0.762256 0.5
412 1 0.498913 0.772636 0.5
207 1 0.223427 0.999451 0.5
165 1 0.0459189 0.792218 0.5
164 1 0.0187887 0.835852 0.5
167 1 0.0933791 0.800478 0.5
166 1 0.064401 0.840694 0.5
168 1 0.115227 0.850167 0.5
169 1 0.143322 0.810137 0.5
172 1 0.191494 0.817726 0.5
195 1 0.239477 0.821495 0.5
197 1 0.288657 0.826141 0.5
210 1 0.33832 0.834324 0.5
411 1 0.415178 0.79734 0.5
185 1 0.0387655 0.885107 0.5
187 1 0.0856881 0.889109 0.5
170 1 0.161294 0.857499 0.5
189 1 0.133942 0.898552 0.5
193 1 0.209893 0.864018 0.5
191 1 0.181546 0.904428 0.5
194 1 0.233384 0.913947 0.5
209 1 0.28253 0.91484 0.5
196 1 0.260369 0.8663 0.5
198 1 0.309865 0.873282 0.5
184 1 0.0103019 0.92885 0.5
203 1 0.0295686 0.978809 0.5
186 1 0.0583525 0.93362 0.5
188 1 0.10663 0.941589 0.5
204 1 0.0795175 0.983413 0.5
205 1 0.128338 0.989688 0.5
206 1 0.173391 1.00087 0.5
190 1 0.155716 0.949157 0.5
192 1 0.202887 0.954828 0.5
211 2 0.5 9.19242e-05 0.5
212 2 0.525 0.046054 0.5
213 2 0.55 9.19242e-05 0.5
214 2 0.575 0.046054 0.5
215 2 0.6 9.19242e-05 0.5
216 2 0.625 0.046054 0.5
217 2 0.65 9.19242e-05 0.5
218 2 0.675 0.046054 0.5
219 2 0.7 9.19242e-05 0.5
220 2 0.725 0.046054 0.5
221 2 0.75 9.19242e-05 0.5
222 2 0.775 0.046054 0.5
223 2 0.8 9.19242e-05 0.5
224 2 0.825 0.046054 0.5
225 2 0.85 9.19242e-05 0.5
226 2 0.875 0.046054 0.5
227 2 0.9 9.19242e-05 0.5
228 2 0.925 0.046054 0.5
229 2 0.95 9.19242e-05 0.5
230 2 0.975 0.046054 0.5
231 2 0.5 0.0920162 0.5
233 2 0.55 0.0920162 0.5
232 1 0.526789 0.137479 0.5
235 2 0.6 0.0920162 0.5
234 1 0.575204 0.136509 0.5
236 1 0.624889 0.13792 0.5
237 2 0.65 0.0920162 0.5
238 1 0.674873 0.137379 0.5
239 2 0.7 0.0920162 0.5
240 1 0.724356 0.137299 0.5
241 2 0.75 0.0920162 0.5
243 2 0.8 0.0920162 0.5
242 1 0.773235 0.138222 0.5
245 2 0.85 0.0920162 0.5
244 1 0.823699 0.136468 0.5
246 1 0.871475 0.137734 0.5
247 2 0.9 0.0920162 0.5
248 1 0.922252 0.13758 0.5
249 2 0.95 0.0920162 0.5
250 1 0.973794 0.135112 0.5
253 1 0.551153 0.180491 0.5
255 1 0.600742 0.182017 0.5
257 1 0.649643 0.180528 0.5
259 1 0.698653 0.18355 0.5
261 1 0.747123 0.18377 0.5
263 1 0.80099 0.182492 0.5
265 1 0.850803 0.183494 0.5
267 1 0.896727 0.1805 0.5
269 1 0.946436 0.181388 0.5
41 1 0.999151 0.179777 0.5
252 1 0.525382 0.227231 0.5
273 1 0.547198 0.271605 0.5
254 1 0.574855 0.228465 0.5
275 1 0.598165 0.272625 0.5
256 1 0.62495 0.227197 0.5
258 1 0.674319 0.227634 0.5
277 1 0.646778 0.272114 0.5
260 1 0.723251 0.228987 0.5
279 1 0.699064 0.272809 0.5
281 1 0.747566 0.271781 0.5
262 1 0.772829 0.226788 0.5
283 1 0.797036 0.271758 0.5
264 1 0.820908 0.228153 0.5
285 1 0.845279 0.272247 0.5
266 1 0.872237 0.230965 0.5
268 1 0.92183 0.224614 0.5
287 1 0.898898 0.270523 0.5
270 1 0.971265 0.224893 0.5
289 1 0.946377 0.269401 0.5
61 1 0.997296 0.269885 0.5
272 1 0.5224 0.316675 0.5
274 1 0.572403 0.315322 0.5
276 1 0.61989 0.315971 0.5
278 1 0.669215 0.315439 0.5
280 1 0.720887 0.317027 0.5
282 1 0.769666 0.316021 0.5
284 1 0.819088 0.315024 0.5
286 1 0.867764 0.314724 0.5
288 1 0.92008 0.317559 0.5
290 1 0.969045 0.313298 0.5
309 1 0.943345 0.361563 0.5
81 1 0.993487 0.362939 0.5
293 1 0.54546 0.36492 0.5
292 1 0.519658 0.406213 0.5
294 1 0.570569 0.411925 0.5
295 1 0.594146 0.361219 0.5
296 1 0.620544 0.408859 0.5
297 1 0.643831 0.359723 0.5
298 1 0.66745 0.402737 0.5
299 1 0.69436 0.359784 0.5
300 1 0.71821 0.405842 0.5
301 1 0.746007 0.362117 0.5
303 1 0.795504 0.360412 0.5
302 1 0.770125 0.404797 0.5
305 1 0.844477 0.360259 0.5
304 1 0.817209 0.404289 0.5
306 1 0.869244 0.404256 0.5
307 1 0.894186 0.360662 0.5
308 1 0.91671 0.408089 0.5
310 1 0.970476 0.408309 0.5
313 1 0.539329 0.455462 0.5
329 1 0.942011 0.454666 0.5
101 1 0.990367 0.455615 0.5
327 1 0.892303 0.452403 0.5
315 1 0.59259 0.456305 0.5
317 1 0.641727 0.453829 0.5
318 1 0.674245 0.494073 0.5
319 1 0.694967 0.449145 0.5
321 1 0.746519 0.449017 0.5
320 1 0.72352 0.49684 0.5
323 1 0.796808 0.450845 0.5
326 1 0.870664 0.498052 0.5
325 1 0.844807 0.452476 0.5
312 1 0.508607 0.498135 0.5
322 1 0.770719 0.497278 0.5
324 1 0.819509 0.497672 0.5
335 1 0.524308 0.545015 0.5
336 1 0.575128 0.551366 0.5
337 1 0.649275 0.534314 0.5
339 1 0.698988 0.540553 0.5
341 1 0.747434 0.542414 0.5
343 1 0.797606 0.545442 0.5
345 1 0.846815 0.542949 0.5
347 1 0.895062 0.544287 0.5
349 1 0.943152 0.548549 0.5
355 1 0.539125 0.595379 0.5
354 1 0.503331 0.635268 0.5
356 1 0.586675 0.609738 0.5
357 1 0.619296 0.572558 0.5
338 1 0.669651 0.5819 0.5
358 1 0.637147 0.620415 0.5
340 1 0.717843 0.586909 0.5
359 1 0.691365 0.629461 0.5
361 1 0.738854 0.63133 0.5
342 1 0.767876 0.590178 0.5
363 1 0.791316 0.635112 0.5
344 1 0.818911 0.590836 0.5
365 1 0.840491 0.637369 0.5
346 1 0.8674 0.590131 0.5
348 1 0.916286 0.594643 0.5
367 1 0.889781 0.637645 0.5
369 1 0.938822 0.645152 0.5
350 1 0.964877 0.599599 0.5
374 1 0.520003 0.682466 0.5
375 1 0.551154 0.644558 0.5
377 1 0.603949 0.658605 0.5
376 1 0.568629 0.695447 0.5
378 1 0.617511 0.707874 0.5
379 1 0.659548 0.675877 0.5
380 1 0.67563 0.723179 0.5
360 1 0.711369 0.679282 0.5
362 1 0.763297 0.676541 0.5
364 1 0.812359 0.681093 0.5
366 1 0.859914 0.685705 0.5
368 1 0.908492 0.686756 0.5
122 1 0.986042 0.647829 0.5
141 1 0.95866 0.69411 0.5
394 1 0.534447 0.733586 0.5
413 1 0.544369 0.783243 0.5
395 1 0.581071 0.744994 0.5
397 1 0.625011 0.758489 0.5
399 1 0.66731 0.779521 0.5
381 1 0.739251 0.720104 0.5
401 1 0.711586 0.764268 0.5
383 1 0.786318 0.723951 0.5
382 1 0.759083 0.766324 0.5
384 1 0.80576 0.776636 0.5
385 1 0.832154 0.730445 0.5
386 1 0.853206 0.780511 0.5
387 1 0.881607 0.732837 0.5
389 1 0.902841 0.778055 0.5
370 1 0.929761 0.73638 0.5
142 1 0.977253 0.741694 0.5
161 1 0.95337 0.785202 0.5
396 1 0.590616 0.795624 0.5
414 1 0.631853 0.815844 0.5
398 1 0.679847 0.827639 0.5
400 1 0.728353 0.815837 0.5
415 1 0.698961 0.874332 0.5
403 1 0.775525 0.81574 0.5
402 1 0.74881 0.861148 0.5
405 1 0.828148 0.822022 0.5
388 1 0.875598 0.825564 0.5
390 1 0.923464 0.830629 0.5
162 1 0.971083 0.833845 0.5
416 1 0.722932 0.917624 0.5
404 1 0.798335 0.862123 0.5
417 1 0.771872 0.906899 0.5
407 1 0.847987 0.869077 0.5
406 1 0.819435 0.911586 0.5
408 1 0.868442 0.916813 0.5
409 1 0.895297 0.87487 0.5
410 1 0.91622 0.920945 0.5
182 1 0.963573 0.927418 0.5
181 1 0.943195 0.876839 0.5
183 1 0.990764 0.880696 0.5
418 1 0.788849 0.955497 0.5
419 1 0.838698 0.959639 0.5
420 1 0.886604 0.965814 0.5
201 1 0.933587 0.969334 0.5
202 1 0.982795 0.972732 0.5
121 1 0.99244 0.553606 0.5
330 1 0.969647 0.500679 0.5
163 1 0.998928 0.788653 0.5
328 1 0.91942 0.497658 0.5
316 1 0.609659 0.504667 0.5
314 1 0.557056 0.502832 0.5
