ITEM: TIMESTEP
45750
ITEM: NUMBER OF ATOMS
420
ITEM: BOX BOUNDS pp ss pp
0.0000000000000000e+00 2.2653923264628304e+01
-1.9618873042551413e-03 2.0558312105293069e+01
-2.8317404080785380e-01 2.8317404080785380e-01
ITEM: ATOMS id type xs ys zs
1 2 0 9.54213e-05 0.5
2 2 0.025 0.0478061 0.5
3 2 0.05 9.54213e-05 0.5
4 2 0.075 0.0478061 0.5
5 2 0.1 9.54213e-05 0.5
6 2 0.125 0.0478061 0.5
7 2 0.15 9.54213e-05 0.5
8 2 0.175 0.0478061 0.5
9 2 0.2 9.54213e-05 0.5
10 2 0.225 0.0478061 0.5
11 2 0.25 9.54213e-05 0.5
12 2 0.275 0.0478061 0.5
13 2 0.3 9.54213e-05 0.5
14 2 0.325 0.0478061 0.5
15 2 0.35 9.54213e-05 0.5
16 2 0.375 0.0478061 0.5
17 2 0.4 9.54213e-05 0.5
18 2 0.425 0.0478061 0.5
19 2 0.45 9.54213e-05 0.5
20 2 0.475 0.0478061 0.5
21 2 0 0.0955167 0.5
23 2 0.05 0.0955167 0.5
22 1 0.0267357 0.139957 0.5
25 2 0.1 0.0955167 0.5
24 1 0.0746456 0.143651 0.5
27 2 0.15 0.0955167 0.5
28 1 0.17464 0.145474 0.5
29 2 0.2 0.0955167 0.5
30 1 0.225266 0.142726 0.5
31 2 0.25 0.0955167 0.5
33 2 0.3 0.0955167 0.5
32 1 0.277286 0.142504 0.5
35 2 0.35 0.0955167 0.5
36 1 0.376276 0.143709 0.5
37 2 0.4 0.0955167 0.5
38 1 0.427351 0.14251 0.5
39 2 0.45 0.0955167 0.5
40 1 0.475034 0.141783 0.5
43 1 0.0493596 0.189885 0.5
119 1 0.452032 0.475646 0.5
26 1 0.124878 0.147353 0.5
45 1 0.0996055 0.193559 0.5
47 1 0.150568 0.191939 0.5
49 1 0.199349 0.190479 0.5
51 1 0.251822 0.19042 0.5
53 1 0.301488 0.189634 0.5
34 1 0.327294 0.142029 0.5
55 1 0.350821 0.190546 0.5
57 1 0.39881 0.189708 0.5
59 1 0.450172 0.19046 0.5
117 1 0.402386 0.476439 0.5
42 1 0.0235872 0.235207 0.5
44 1 0.0743663 0.237964 0.5
65 1 0.104374 0.28877 0.5
46 1 0.123099 0.23903 0.5
48 1 0.175479 0.240405 0.5
67 1 0.153463 0.289229 0.5
50 1 0.223752 0.237353 0.5
69 1 0.20084 0.287244 0.5
71 1 0.250329 0.283184 0.5
52 1 0.275243 0.237801 0.5
73 1 0.299862 0.283199 0.5
54 1 0.325928 0.236169 0.5
75 1 0.353987 0.283728 0.5
56 1 0.375345 0.235779 0.5
58 1 0.423988 0.235716 0.5
77 1 0.402018 0.282167 0.5
60 1 0.476826 0.23747 0.5
101 1 0.000840639 0.472657 0.5
63 1 0.053172 0.285009 0.5
62 1 0.0265497 0.332887 0.5
64 1 0.077395 0.331244 0.5
66 1 0.127359 0.335059 0.5
68 1 0.175546 0.336819 0.5
70 1 0.224986 0.334263 0.5
72 1 0.274985 0.330789 0.5
74 1 0.32632 0.329769 0.5
76 1 0.379105 0.335793 0.5
78 1 0.427675 0.334509 0.5
79 1 0.451077 0.284889 0.5
80 1 0.477958 0.334985 0.5
83 1 0.0480005 0.377991 0.5
82 1 0.0254681 0.425245 0.5
85 1 0.102685 0.382323 0.5
84 1 0.0757687 0.425602 0.5
87 1 0.151955 0.382698 0.5
88 1 0.177915 0.428585 0.5
89 1 0.202422 0.381509 0.5
90 1 0.227672 0.428461 0.5
91 1 0.255023 0.379214 0.5
93 1 0.303559 0.380502 0.5
92 1 0.27476 0.427609 0.5
94 1 0.327338 0.428154 0.5
95 1 0.354545 0.380878 0.5
96 1 0.376062 0.427341 0.5
98 1 0.427002 0.431313 0.5
97 1 0.405961 0.382356 0.5
100 1 0.479042 0.42999 0.5
99 1 0.454884 0.38547 0.5
103 1 0.0505835 0.476933 0.5
107 1 0.099389 0.475487 0.5
86 1 0.12764 0.426933 0.5
109 1 0.151774 0.475202 0.5
111 1 0.201708 0.474826 0.5
112 1 0.250808 0.474251 0.5
113 1 0.299572 0.47573 0.5
115 1 0.352846 0.474361 0.5
61 1 0.00182743 0.284993 0.5
251 1 0.499367 0.188796 0.5
41 1 0.00104421 0.187291 0.5
102 1 0.0237512 0.522094 0.5
104 1 0.0514534 0.569768 0.5
208 1 0.324302 0.99377 0.5
105 1 0.0776509 0.523506 0.5
106 1 0.100469 0.572131 0.5
108 1 0.128338 0.520821 0.5
110 1 0.17708 0.522787 0.5
129 1 0.148276 0.569136 0.5
133 1 0.227874 0.521003 0.5
131 1 0.201639 0.571907 0.5
134 1 0.252058 0.566479 0.5
135 1 0.27858 0.523553 0.5
136 1 0.303352 0.572918 0.5
114 1 0.326883 0.522271 0.5
137 1 0.350985 0.569761 0.5
116 1 0.377014 0.522518 0.5
139 1 0.401368 0.568966 0.5
118 1 0.428438 0.522491 0.5
120 1 0.477426 0.52346 0.5
331 1 0.449436 0.56969 0.5
121 1 0.00459235 0.568844 0.5
123 1 0.0283681 0.619424 0.5
125 1 0.0766758 0.617005 0.5
127 1 0.124943 0.619605 0.5
130 1 0.174865 0.617987 0.5
132 1 0.226614 0.619721 0.5
155 1 0.276446 0.617061 0.5
157 1 0.325449 0.619959 0.5
138 1 0.375415 0.617822 0.5
140 1 0.426161 0.616469 0.5
332 1 0.476784 0.618012 0.5
124 1 0.0507436 0.664967 0.5
143 1 0.024619 0.710487 0.5
122 1 0.00106983 0.66412 0.5
126 1 0.0999865 0.665208 0.5
145 1 0.0730743 0.71086 0.5
147 1 0.124492 0.711587 0.5
128 1 0.149229 0.663201 0.5
149 1 0.17442 0.711788 0.5
151 1 0.20172 0.665539 0.5
152 1 0.225557 0.711177 0.5
153 1 0.251929 0.665901 0.5
156 1 0.301479 0.665975 0.5
158 1 0.35143 0.665415 0.5
177 1 0.327198 0.712856 0.5
179 1 0.375937 0.711722 0.5
159 1 0.402167 0.662228 0.5
160 1 0.424951 0.711741 0.5
351 1 0.4524 0.663973 0.5
352 1 0.477507 0.715394 0.5
209 1 0.351557 0.948327 0.5
144 1 0.0497788 0.759725 0.5
146 1 0.0976226 0.754758 0.5
148 1 0.152224 0.758435 0.5
150 1 0.201398 0.758169 0.5
173 1 0.251427 0.758481 0.5
154 1 0.277577 0.711302 0.5
175 1 0.303211 0.757063 0.5
178 1 0.352477 0.759933 0.5
180 1 0.402456 0.760608 0.5
207 1 0.273711 0.994031 0.5
371 1 0.451932 0.761324 0.5
163 1 0.0254033 0.806678 0.5
164 1 0.0532724 0.854488 0.5
165 1 0.0763705 0.808355 0.5
166 1 0.104514 0.851751 0.5
167 1 0.125566 0.804729 0.5
169 1 0.17652 0.804551 0.5
168 1 0.153295 0.852179 0.5
171 1 0.227596 0.806486 0.5
170 1 0.203991 0.851627 0.5
172 1 0.255386 0.85304 0.5
174 1 0.277815 0.802393 0.5
195 1 0.303182 0.853171 0.5
176 1 0.3267 0.806154 0.5
197 1 0.35316 0.854313 0.5
199 1 0.376328 0.807533 0.5
391 1 0.425849 0.807735 0.5
210 1 0.402344 0.854351 0.5
411 1 0.478998 0.807105 0.5
200 1 0.454354 0.852216 0.5
183 1 0.0254137 0.898372 0.5
185 1 0.0765768 0.902507 0.5
187 1 0.125162 0.898381 0.5
189 1 0.173326 0.901112 0.5
191 1 0.227366 0.898918 0.5
193 1 0.277572 0.901558 0.5
196 1 0.327938 0.89957 0.5
198 1 0.379044 0.902712 0.5
184 1 0.052642 0.947107 0.5
202 1 0.0282051 0.997353 0.5
203 1 0.077628 0.997308 0.5
186 1 0.101572 0.946306 0.5
204 1 0.127457 0.99252 0.5
188 1 0.149448 0.94572 0.5
205 1 0.176106 0.989437 0.5
206 1 0.221844 0.991307 0.5
192 1 0.252549 0.945922 0.5
190 1 0.200942 0.944569 0.5
194 1 0.301947 0.947808 0.5
162 1 0.000949206 0.852631 0.5
182 1 0.00220089 0.948579 0.5
333 1 0.50032 0.570267 0.5
142 1 0.00056426 0.761826 0.5
211 2 0.5 9.54213e-05 0.5
212 2 0.525 0.0478061 0.5
213 2 0.55 9.54213e-05 0.5
214 2 0.575 0.0478061 0.5
215 2 0.6 9.54213e-05 0.5
216 2 0.625 0.0478061 0.5
217 2 0.65 9.54213e-05 0.5
218 2 0.675 0.0478061 0.5
219 2 0.7 9.54213e-05 0.5
220 2 0.725 0.0478061 0.5
221 2 0.75 9.54213e-05 0.5
222 2 0.775 0.0478061 0.5
223 2 0.8 9.54213e-05 0.5
224 2 0.825 0.0478061 0.5
225 2 0.85 9.54213e-05 0.5
226 2 0.875 0.0478061 0.5
227 2 0.9 9.54213e-05 0.5
228 2 0.925 0.0478061 0.5
229 2 0.95 9.54213e-05 0.5
230 2 0.975 0.0478061 0.5
231 2 0.5 0.0955167 0.5
233 2 0.55 0.0955167 0.5
232 1 0.525027 0.141829 0.5
235 2 0.6 0.0955167 0.5
234 1 0.575352 0.146021 0.5
237 2 0.65 0.0955167 0.5
238 1 0.676445 0.145052 0.5
239 2 0.7 0.0955167 0.5
240 1 0.727944 0.14248 0.5
241 2 0.75 0.0955167 0.5
243 2 0.8 0.0955167 0.5
245 2 0.85 0.0955167 0.5
246 1 0.8765 0.142524 0.5
244 1 0.827643 0.14159 0.5
247 2 0.9 0.0955167 0.5
248 1 0.92693 0.142246 0.5
249 2 0.95 0.0955167 0.5
253 1 0.547989 0.191719 0.5
236 1 0.624387 0.143909 0.5
255 1 0.602045 0.189786 0.5
257 1 0.651742 0.189558 0.5
259 1 0.702867 0.190985 0.5
242 1 0.778472 0.14263 0.5
261 1 0.751653 0.187938 0.5
263 1 0.802257 0.189565 0.5
265 1 0.850224 0.186569 0.5
267 1 0.903555 0.189616 0.5
250 1 0.976096 0.14245 0.5
269 1 0.95398 0.190016 0.5
252 1 0.526658 0.238517 0.5
273 1 0.551476 0.282324 0.5
254 1 0.576436 0.237998 0.5
256 1 0.625072 0.23748 0.5
275 1 0.601559 0.283764 0.5
258 1 0.675398 0.2342 0.5
277 1 0.649829 0.284727 0.5
260 1 0.726968 0.235012 0.5
279 1 0.700336 0.281925 0.5
281 1 0.751497 0.279409 0.5
262 1 0.776521 0.233445 0.5
283 1 0.80335 0.278692 0.5
264 1 0.826884 0.23367 0.5
285 1 0.851826 0.283681 0.5
266 1 0.878941 0.23724 0.5
268 1 0.927105 0.237728 0.5
270 1 0.979006 0.235979 0.5
289 1 0.950577 0.285835 0.5
329 1 0.952403 0.473062 0.5
272 1 0.528013 0.3318 0.5
274 1 0.576498 0.331726 0.5
276 1 0.624915 0.331604 0.5
278 1 0.677189 0.332361 0.5
280 1 0.726351 0.326644 0.5
282 1 0.77719 0.32535 0.5
284 1 0.825953 0.32984 0.5
286 1 0.877311 0.331042 0.5
287 1 0.902967 0.283006 0.5
288 1 0.9254 0.332086 0.5
290 1 0.976293 0.332857 0.5
293 1 0.551612 0.378963 0.5
292 1 0.529982 0.429592 0.5
323 1 0.803896 0.473865 0.5
294 1 0.579052 0.427163 0.5
295 1 0.601099 0.378585 0.5
296 1 0.62814 0.426437 0.5
297 1 0.648884 0.37778 0.5
298 1 0.678125 0.428394 0.5
299 1 0.702734 0.381882 0.5
300 1 0.729028 0.42995 0.5
301 1 0.749614 0.375483 0.5
303 1 0.800082 0.377281 0.5
302 1 0.775411 0.424808 0.5
305 1 0.852497 0.375452 0.5
304 1 0.827654 0.426523 0.5
306 1 0.876387 0.424274 0.5
307 1 0.901911 0.379316 0.5
308 1 0.925145 0.426231 0.5
310 1 0.975986 0.428086 0.5
309 1 0.948952 0.382667 0.5
325 1 0.85297 0.474368 0.5
313 1 0.553118 0.476814 0.5
327 1 0.902167 0.473211 0.5
315 1 0.601949 0.474838 0.5
317 1 0.65049 0.474661 0.5
319 1 0.700686 0.474183 0.5
321 1 0.754537 0.476987 0.5
291 1 0.50534 0.381828 0.5
271 1 0.502745 0.283882 0.5
311 1 0.503027 0.476845 0.5
81 1 0.998555 0.378967 0.5
312 1 0.525637 0.524415 0.5
335 1 0.55277 0.571253 0.5
314 1 0.57546 0.524856 0.5
336 1 0.603175 0.571873 0.5
316 1 0.62536 0.524589 0.5
318 1 0.675464 0.523292 0.5
337 1 0.653054 0.56933 0.5
320 1 0.728273 0.521487 0.5
339 1 0.703206 0.567723 0.5
341 1 0.752443 0.572628 0.5
322 1 0.778472 0.522301 0.5
343 1 0.801513 0.571611 0.5
324 1 0.827951 0.52471 0.5
345 1 0.852767 0.56974 0.5
326 1 0.876179 0.519997 0.5
328 1 0.924506 0.520222 0.5
347 1 0.903957 0.567602 0.5
349 1 0.954853 0.567539 0.5
330 1 0.977609 0.519781 0.5
334 1 0.527771 0.614872 0.5
355 1 0.577281 0.619273 0.5
357 1 0.62748 0.618074 0.5
338 1 0.67564 0.619573 0.5
340 1 0.72462 0.615356 0.5
342 1 0.779185 0.620006 0.5
344 1 0.830423 0.616852 0.5
346 1 0.882073 0.615397 0.5
348 1 0.930455 0.614427 0.5
350 1 0.980168 0.616921 0.5
373 1 0.529098 0.713231 0.5
354 1 0.553339 0.666191 0.5
356 1 0.601545 0.663498 0.5
375 1 0.57815 0.715996 0.5
377 1 0.624976 0.711195 0.5
358 1 0.650429 0.665177 0.5
379 1 0.675222 0.712747 0.5
359 1 0.700087 0.666879 0.5
360 1 0.723928 0.712634 0.5
361 1 0.748397 0.662969 0.5
363 1 0.802222 0.666308 0.5
362 1 0.773529 0.709542 0.5
365 1 0.85508 0.664833 0.5
364 1 0.826579 0.710909 0.5
366 1 0.874167 0.716337 0.5
367 1 0.905227 0.662501 0.5
368 1 0.925132 0.710739 0.5
369 1 0.953486 0.661221 0.5
141 1 0.975553 0.709718 0.5
374 1 0.552657 0.765265 0.5
376 1 0.60224 0.761746 0.5
378 1 0.651121 0.760027 0.5
380 1 0.700143 0.758515 0.5
381 1 0.749844 0.756628 0.5
383 1 0.801863 0.758798 0.5
385 1 0.851742 0.761818 0.5
387 1 0.901101 0.756362 0.5
370 1 0.949117 0.759075 0.5
201 1 0.975448 0.995035 0.5
393 1 0.528545 0.811633 0.5
412 1 0.557648 0.858454 0.5
410 1 0.951161 0.94972 0.5
394 1 0.577009 0.812805 0.5
413 1 0.605552 0.857001 0.5
395 1 0.626784 0.808095 0.5
397 1 0.677298 0.807576 0.5
396 1 0.654196 0.853809 0.5
401 1 0.725781 0.805981 0.5
399 1 0.701473 0.851367 0.5
400 1 0.752313 0.852273 0.5
382 1 0.779677 0.804511 0.5
403 1 0.801602 0.856035 0.5
384 1 0.827024 0.809284 0.5
405 1 0.852007 0.855744 0.5
386 1 0.875604 0.807901 0.5
389 1 0.925616 0.807838 0.5
388 1 0.900416 0.857593 0.5
161 1 0.974538 0.80693 0.5
390 1 0.950848 0.855721 0.5
408 1 0.898957 0.94979 0.5
414 1 0.680026 0.901451 0.5
398 1 0.729275 0.901214 0.5
402 1 0.777869 0.902141 0.5
404 1 0.825505 0.902599 0.5
407 1 0.876448 0.903674 0.5
409 1 0.926333 0.902247 0.5
181 1 0.976831 0.902593 0.5
415 1 0.753144 0.948412 0.5
417 1 0.800853 0.951729 0.5
416 1 0.771294 1.00064 0.5
406 1 0.850318 0.94993 0.5
418 1 0.821966 0.999167 0.5
419 1 0.875301 0.995781 0.5
420 1 0.923685 0.99612 0.5
392 1 0.503752 0.856774 0.5
372 1 0.504427 0.758495 0.5
353 1 0.504732 0.666457 0.5
