ITEM: TIMESTEP
58500
ITEM: NUMBER OF ATOMS
420
ITEM: BOX BOUNDS pp ss pp
0.0000000000000000e+00 2.2653923264628304e+01
-1.9618873042551413e-03 2.0569030458571202e+01
-2.8317404080785380e-01 2.8317404080785380e-01
ITEM: ATOMS id type xs ys zs
1 2 0 9.53715e-05 0.5
2 2 0.025 0.0477811 0.5
3 2 0.05 9.53715e-05 0.5
4 2 0.075 0.0477811 0.5
5 2 0.1 9.53715e-05 0.5
6 2 0.125 0.0477811 0.5
7 2 0.15 9.53715e-05 0.5
8 2 0.175 0.0477811 0.5
9 2 0.2 9.53715e-05 0.5
10 2 0.225 0.0477811 0.5
11 2 0.25 9.53715e-05 0.5
12 2 0.275 0.0477811 0.5
13 2 0.3 9.53715e-05 0.5
14 2 0.325 0.0477811 0.5
15 2 0.35 9.53715e-05 0.5
16 2 0.375 0.0477811 0.5
17 2 0.4 9.53715e-05 0.5
18 2 0.425 0.0477811 0.5
19 2 0.45 9.53715e-05 0.5
20 2 0.475 0.0477811 0.5
21 2 0 0.0954669 0.5
23 2 0.05 0.0954669 0.5
25 2 0.1 0.0954669 0.5
26 1 0.125014 0.141611 0.5
27 2 0.15 0.0954669 0.5
28 1 0.173325 0.140882 0.5
29 2 0.2 0.0954669 0.5
31 2 0.25 0.0954669 0.5
33 2 0.3 0.0954669 0.5
32 1 0.273627 0.140339 0.5
35 2 0.35 0.0954669 0.5
37 2 0.4 0.0954669 0.5
39 2 0.45 0.0954669 0.5
22 1 0.0257611 0.145899 0.5
43 1 0.0501221 0.190159 0.5
24 1 0.0753657 0.140832 0.5
45 1 0.0974177 0.18901 0.5
47 1 0.145018 0.190259 0.5
30 1 0.224658 0.142771 0.5
49 1 0.19716 0.186386 0.5
51 1 0.248838 0.189536 0.5
53 1 0.297838 0.187491 0.5
34 1 0.325086 0.143438 0.5
55 1 0.35007 0.189909 0.5
36 1 0.37476 0.142184 0.5
38 1 0.424736 0.1421 0.5
57 1 0.402049 0.188187 0.5
40 1 0.47474 0.140356 0.5
59 1 0.448824 0.187241 0.5
291 1 0.494811 0.376747 0.5
42 1 0.0241275 0.239568 0.5
119 1 0.443108 0.473898 0.5
44 1 0.0720368 0.2377 0.5
65 1 0.0972726 0.284121 0.5
46 1 0.123286 0.238146 0.5
48 1 0.173513 0.230395 0.5
67 1 0.148333 0.282411 0.5
50 1 0.221932 0.232281 0.5
69 1 0.19692 0.28168 0.5
71 1 0.250175 0.280698 0.5
52 1 0.275415 0.235731 0.5
73 1 0.299235 0.282394 0.5
54 1 0.325852 0.237008 0.5
56 1 0.373725 0.233892 0.5
58 1 0.425058 0.236412 0.5
60 1 0.473981 0.235692 0.5
79 1 0.44485 0.28445 0.5
63 1 0.0465533 0.287613 0.5
62 1 0.0199182 0.329821 0.5
64 1 0.0753033 0.333126 0.5
66 1 0.126376 0.331965 0.5
68 1 0.173381 0.329572 0.5
70 1 0.223639 0.326768 0.5
72 1 0.274857 0.329922 0.5
75 1 0.350006 0.283724 0.5
74 1 0.323172 0.330498 0.5
76 1 0.371847 0.330635 0.5
77 1 0.398179 0.280878 0.5
78 1 0.421941 0.330042 0.5
80 1 0.470944 0.331589 0.5
311 1 0.497255 0.473609 0.5
83 1 0.0452373 0.375007 0.5
82 1 0.0221391 0.423492 0.5
100 1 0.472148 0.426973 0.5
85 1 0.0951488 0.381872 0.5
84 1 0.0703365 0.428157 0.5
87 1 0.148167 0.378877 0.5
86 1 0.120669 0.427092 0.5
89 1 0.197119 0.378381 0.5
91 1 0.245634 0.373696 0.5
93 1 0.29547 0.378441 0.5
92 1 0.270554 0.422937 0.5
95 1 0.345891 0.376002 0.5
97 1 0.392729 0.376551 0.5
99 1 0.444144 0.378751 0.5
98 1 0.419563 0.425191 0.5
103 1 0.0466557 0.476285 0.5
107 1 0.095305 0.474357 0.5
88 1 0.171669 0.425708 0.5
109 1 0.14906 0.471049 0.5
111 1 0.196826 0.471857 0.5
90 1 0.221557 0.425487 0.5
112 1 0.249629 0.471525 0.5
113 1 0.297043 0.471699 0.5
115 1 0.345712 0.470693 0.5
94 1 0.322584 0.422605 0.5
96 1 0.370253 0.423189 0.5
117 1 0.392604 0.472618 0.5
271 1 0.495876 0.283196 0.5
251 1 0.498684 0.188005 0.5
102 1 0.0210082 0.519758 0.5
104 1 0.0441107 0.564412 0.5
105 1 0.071728 0.520205 0.5
108 1 0.121732 0.520702 0.5
106 1 0.0951557 0.566543 0.5
110 1 0.173459 0.518456 0.5
129 1 0.147715 0.565726 0.5
133 1 0.221026 0.518139 0.5
131 1 0.196306 0.56559 0.5
135 1 0.270569 0.51948 0.5
114 1 0.32143 0.518439 0.5
137 1 0.34489 0.565914 0.5
116 1 0.370226 0.521477 0.5
118 1 0.421536 0.519692 0.5
139 1 0.396474 0.56638 0.5
120 1 0.471695 0.520486 0.5
331 1 0.443511 0.571494 0.5
333 1 0.492816 0.565875 0.5
123 1 0.0206542 0.613143 0.5
125 1 0.0717283 0.611171 0.5
127 1 0.119991 0.616337 0.5
130 1 0.170755 0.612851 0.5
134 1 0.246759 0.565527 0.5
132 1 0.221452 0.611124 0.5
136 1 0.295558 0.563822 0.5
155 1 0.268581 0.612619 0.5
157 1 0.321104 0.611339 0.5
138 1 0.37313 0.614053 0.5
140 1 0.420893 0.61417 0.5
332 1 0.47141 0.614234 0.5
124 1 0.0451193 0.662171 0.5
143 1 0.0220121 0.712068 0.5
126 1 0.0929504 0.661125 0.5
145 1 0.0715194 0.712173 0.5
147 1 0.119291 0.706375 0.5
128 1 0.144507 0.661262 0.5
149 1 0.169451 0.710736 0.5
151 1 0.192856 0.659912 0.5
152 1 0.217887 0.70656 0.5
153 1 0.243846 0.657997 0.5
156 1 0.292651 0.659946 0.5
154 1 0.270517 0.707911 0.5
158 1 0.343098 0.658966 0.5
177 1 0.320321 0.705206 0.5
159 1 0.392422 0.663575 0.5
160 1 0.420398 0.708892 0.5
351 1 0.446552 0.659039 0.5
352 1 0.468638 0.707117 0.5
353 1 0.496304 0.660804 0.5
144 1 0.0488637 0.757178 0.5
146 1 0.0960061 0.758886 0.5
148 1 0.14444 0.757949 0.5
150 1 0.19528 0.756164 0.5
173 1 0.245005 0.753795 0.5
175 1 0.295628 0.755064 0.5
178 1 0.345331 0.755609 0.5
179 1 0.367536 0.709517 0.5
180 1 0.394124 0.753863 0.5
371 1 0.446346 0.755022 0.5
163 1 0.0217584 0.80215 0.5
164 1 0.0471036 0.852975 0.5
165 1 0.0739371 0.808305 0.5
166 1 0.0993165 0.85592 0.5
167 1 0.12373 0.807732 0.5
169 1 0.172341 0.804467 0.5
168 1 0.148847 0.853454 0.5
171 1 0.221199 0.802592 0.5
170 1 0.196833 0.849863 0.5
172 1 0.246421 0.851205 0.5
174 1 0.26815 0.801346 0.5
195 1 0.294685 0.848492 0.5
176 1 0.32059 0.80258 0.5
197 1 0.344349 0.851805 0.5
199 1 0.370831 0.801213 0.5
391 1 0.418741 0.800426 0.5
210 1 0.393056 0.849541 0.5
411 1 0.470441 0.800755 0.5
200 1 0.443112 0.84879 0.5
392 1 0.496258 0.847942 0.5
183 1 0.0245062 0.899742 0.5
185 1 0.0740785 0.903727 0.5
187 1 0.122758 0.902233 0.5
189 1 0.171581 0.900374 0.5
191 1 0.220906 0.901838 0.5
193 1 0.270814 0.895832 0.5
196 1 0.322123 0.900882 0.5
198 1 0.374065 0.899862 0.5
184 1 0.0459822 0.947584 0.5
202 1 0.0222973 0.995336 0.5
203 1 0.0716313 0.995765 0.5
186 1 0.0978053 0.9502 0.5
204 1 0.121107 0.998982 0.5
188 1 0.145418 0.948565 0.5
205 1 0.171125 0.996208 0.5
206 1 0.220157 0.997348 0.5
190 1 0.195855 0.948536 0.5
192 1 0.243664 0.950716 0.5
207 1 0.267669 0.999731 0.5
194 1 0.291038 0.944656 0.5
208 1 0.318189 0.991363 0.5
209 1 0.345683 0.949896 0.5
372 1 0.49223 0.753001 0.5
211 2 0.5 9.53715e-05 0.5
212 2 0.525 0.0477811 0.5
213 2 0.55 9.53715e-05 0.5
214 2 0.575 0.0477811 0.5
215 2 0.6 9.53715e-05 0.5
216 2 0.625 0.0477811 0.5
217 2 0.65 9.53715e-05 0.5
218 2 0.675 0.0477811 0.5
219 2 0.7 9.53715e-05 0.5
220 2 0.725 0.0477811 0.5
221 2 0.75 9.53715e-05 0.5
222 2 0.775 0.0477811 0.5
223 2 0.8 9.53715e-05 0.5
224 2 0.825 0.0477811 0.5
225 2 0.85 9.53715e-05 0.5
226 2 0.875 0.0477811 0.5
227 2 0.9 9.53715e-05 0.5
228 2 0.925 0.0477811 0.5
229 2 0.95 9.53715e-05 0.5
230 2 0.975 0.0477811 0.5
231 2 0.5 0.0954669 0.5
233 2 0.55 0.0954669 0.5
232 1 0.524374 0.141024 0.5
235 2 0.6 0.0954669 0.5
237 2 0.65 0.0954669 0.5
238 1 0.676662 0.141774 0.5
239 2 0.7 0.0954669 0.5
241 2 0.75 0.0954669 0.5
243 2 0.8 0.0954669 0.5
242 1 0.775145 0.140658 0.5
245 2 0.85 0.0954669 0.5
244 1 0.823305 0.144196 0.5
246 1 0.875758 0.139615 0.5
247 2 0.9 0.0954669 0.5
248 1 0.927206 0.142313 0.5
249 2 0.95 0.0954669 0.5
253 1 0.549331 0.189807 0.5
234 1 0.575615 0.141031 0.5
255 1 0.598569 0.18894 0.5
236 1 0.62469 0.141353 0.5
257 1 0.648001 0.189711 0.5
240 1 0.723589 0.140427 0.5
259 1 0.699211 0.18808 0.5
261 1 0.750029 0.187105 0.5
263 1 0.799606 0.189518 0.5
265 1 0.850274 0.187703 0.5
267 1 0.899668 0.188902 0.5
250 1 0.975621 0.141436 0.5
269 1 0.949649 0.187883 0.5
81 1 0.996112 0.37829 0.5
252 1 0.52237 0.238688 0.5
273 1 0.546801 0.285967 0.5
254 1 0.57433 0.241911 0.5
275 1 0.598551 0.288063 0.5
256 1 0.624543 0.240043 0.5
258 1 0.675421 0.237379 0.5
277 1 0.648082 0.286537 0.5
260 1 0.722421 0.234587 0.5
279 1 0.700113 0.285005 0.5
281 1 0.749764 0.285691 0.5
262 1 0.771554 0.23694 0.5
283 1 0.800116 0.282752 0.5
264 1 0.821266 0.237142 0.5
266 1 0.872969 0.237295 0.5
285 1 0.847596 0.284502 0.5
268 1 0.921943 0.236975 0.5
287 1 0.897959 0.28299 0.5
270 1 0.971341 0.234869 0.5
272 1 0.521066 0.330155 0.5
274 1 0.571407 0.330862 0.5
276 1 0.623572 0.333985 0.5
278 1 0.675197 0.335139 0.5
280 1 0.722292 0.333121 0.5
282 1 0.772086 0.333899 0.5
284 1 0.822386 0.332493 0.5
286 1 0.873087 0.329691 0.5
288 1 0.921589 0.332096 0.5
289 1 0.946129 0.285131 0.5
290 1 0.970857 0.333002 0.5
293 1 0.546513 0.375843 0.5
292 1 0.520028 0.423141 0.5
295 1 0.595886 0.377435 0.5
294 1 0.573371 0.422765 0.5
296 1 0.62493 0.429125 0.5
297 1 0.650003 0.381809 0.5
298 1 0.674172 0.427016 0.5
299 1 0.699687 0.381834 0.5
300 1 0.724125 0.427907 0.5
301 1 0.747498 0.379246 0.5
303 1 0.798855 0.379343 0.5
305 1 0.849528 0.37824 0.5
304 1 0.826332 0.425405 0.5
306 1 0.876575 0.424528 0.5
308 1 0.924114 0.426172 0.5
307 1 0.897322 0.378369 0.5
310 1 0.971244 0.423862 0.5
309 1 0.945924 0.377165 0.5
313 1 0.546266 0.471492 0.5
101 1 0.997284 0.471273 0.5
315 1 0.595283 0.473577 0.5
317 1 0.648633 0.475332 0.5
319 1 0.69593 0.473958 0.5
321 1 0.749129 0.47408 0.5
302 1 0.772433 0.426251 0.5
323 1 0.798861 0.471788 0.5
325 1 0.848296 0.47307 0.5
327 1 0.896774 0.473173 0.5
329 1 0.949342 0.474544 0.5
41 1 1.00035 0.192505 0.5
61 1 0.993627 0.281148 0.5
312 1 0.519727 0.521 0.5
335 1 0.542613 0.567385 0.5
314 1 0.569579 0.520683 0.5
336 1 0.594305 0.566278 0.5
316 1 0.618119 0.521978 0.5
318 1 0.674178 0.521381 0.5
337 1 0.648084 0.568422 0.5
320 1 0.722616 0.521751 0.5
341 1 0.748003 0.56926 0.5
339 1 0.697366 0.566371 0.5
322 1 0.775295 0.518984 0.5
343 1 0.79586 0.566483 0.5
324 1 0.823449 0.51996 0.5
326 1 0.870452 0.518904 0.5
345 1 0.845041 0.566871 0.5
328 1 0.921728 0.517394 0.5
347 1 0.897171 0.567877 0.5
330 1 0.971991 0.52112 0.5
349 1 0.9464 0.568766 0.5
121 1 0.997521 0.567787 0.5
334 1 0.518749 0.615583 0.5
355 1 0.571418 0.614284 0.5
357 1 0.623914 0.616309 0.5
338 1 0.671641 0.614598 0.5
340 1 0.719735 0.61549 0.5
342 1 0.772277 0.614916 0.5
344 1 0.819309 0.614109 0.5
346 1 0.869582 0.615845 0.5
348 1 0.921227 0.616092 0.5
350 1 0.972801 0.613324 0.5
354 1 0.543334 0.662218 0.5
373 1 0.517848 0.707924 0.5
356 1 0.597349 0.659362 0.5
375 1 0.570535 0.706892 0.5
377 1 0.61904 0.707813 0.5
358 1 0.647544 0.665766 0.5
379 1 0.67232 0.711512 0.5
359 1 0.696131 0.664588 0.5
361 1 0.747539 0.661952 0.5
360 1 0.724501 0.70778 0.5
363 1 0.798207 0.663879 0.5
362 1 0.774734 0.712516 0.5
365 1 0.847604 0.662256 0.5
364 1 0.823718 0.708605 0.5
366 1 0.875054 0.712416 0.5
367 1 0.895981 0.663131 0.5
368 1 0.922752 0.708905 0.5
369 1 0.9478 0.662349 0.5
141 1 0.972906 0.708705 0.5
122 1 0.997099 0.663571 0.5
374 1 0.545377 0.754833 0.5
182 1 0.99709 0.945377 0.5
376 1 0.593449 0.753649 0.5
378 1 0.644855 0.757142 0.5
380 1 0.698053 0.7578 0.5
381 1 0.746472 0.757157 0.5
383 1 0.799095 0.756353 0.5
385 1 0.846817 0.757353 0.5
387 1 0.901242 0.759111 0.5
370 1 0.95094 0.757399 0.5
142 1 0.998886 0.755855 0.5
393 1 0.519441 0.797704 0.5
412 1 0.543829 0.842972 0.5
394 1 0.570038 0.801686 0.5
395 1 0.616981 0.80445 0.5
397 1 0.667977 0.800475 0.5
396 1 0.643619 0.848767 0.5
401 1 0.722741 0.802966 0.5
382 1 0.774988 0.803382 0.5
403 1 0.794546 0.850249 0.5
384 1 0.822924 0.802489 0.5
386 1 0.872724 0.804269 0.5
405 1 0.849689 0.852134 0.5
389 1 0.924329 0.806261 0.5
388 1 0.899771 0.852016 0.5
161 1 0.972355 0.803481 0.5
390 1 0.948602 0.850171 0.5
162 1 0.999916 0.850508 0.5
413 1 0.593966 0.854752 0.5
414 1 0.666681 0.894564 0.5
399 1 0.691182 0.849576 0.5
400 1 0.743667 0.848818 0.5
398 1 0.718139 0.89601 0.5
402 1 0.769565 0.894783 0.5
404 1 0.821764 0.897257 0.5
407 1 0.873904 0.900488 0.5
409 1 0.92333 0.897931 0.5
181 1 0.973966 0.895341 0.5
415 1 0.744336 0.944097 0.5
416 1 0.772218 0.991903 0.5
417 1 0.794737 0.941987 0.5
406 1 0.846237 0.944341 0.5
419 1 0.87055 0.990041 0.5
418 1 0.821145 0.996435 0.5
408 1 0.897595 0.945191 0.5
420 1 0.922869 0.996877 0.5
201 1 0.973742 0.990573 0.5
410 1 0.949306 0.942752 0.5
