ITEM: TIMESTEP
0
ITEM: NUMBER OF ATOMS
420
ITEM: BOX BOUNDS pp ss pp
0.0000000000000000e+00 2.2653923264628304e+01
-1.9618873042551413e-03 1.9620834929855668e+01
-2.8317404080785380e-01 2.8317404080785380e-01
ITEM: ATOMS id type xs ys zs
1 2 0 9.998e-05 0.5
2 2 0.025 0.05009 0.5
3 2 0.05 9.998e-05 0.5
4 2 0.075 0.05009 0.5
5 2 0.1 9.998e-05 0.5
6 2 0.125 0.05009 0.5
7 2 0.15 9.998e-05 0.5
8 2 0.175 0.05009 0.5
9 2 0.2 9.998e-05 0.5
10 2 0.225 0.05009 0.5
11 2 0.25 9.998e-05 0.5
12 2 0.275 0.05009 0.5
13 2 0.3 9.998e-05 0.5
14 2 0.325 0.05009 0.5
15 2 0.35 9.998e-05 0.5
16 2 0.375 0.05009 0.5
17 2 0.4 9.998e-05 0.5
18 2 0.425 0.05009 0.5
19 2 0.45 9.998e-05 0.5
20 2 0.475 0.05009 0.5
21 2 0 0.10008 0.5
23 2 0.05 0.10008 0.5
25 2 0.1 0.10008 0.5
27 2 0.15 0.10008 0.5
29 2 0.2 0.10008 0.5
31 2 0.25 0.10008 0.5
33 2 0.3 0.10008 0.5
35 2 0.35 0.10008 0.5
37 2 0.4 0.10008 0.5
39 2 0.45 0.10008 0.5
22 1 0.025 0.15007 0.5
41 1 0 0.20006 0.5
43 1 0.05 0.20006 0.5
24 1 0.075 0.15007 0.5
45 1 0.1 0.20006 0.5
26 1 0.125 0.15007 0.5
28 1 0.175 0.15007 0.5
47 1 0.15 0.20006 0.5
30 1 0.225 0.15007 0.5
49 1 0.2 0.20006 0.5
32 1 0.275 0.15007 0.5
51 1 0.25 0.20006 0.5
53 1 0.3 0.20006 0.5
34 1 0.325 0.15007 0.5
55 1 0.35 0.20006 0.5
36 1 0.375 0.15007 0.5
38 1 0.425 0.15007 0.5
57 1 0.4 0.20006 0.5
40 1 0.475 0.15007 0.5
59 1 0.45 0.20006 0.5
42 1 0.025 0.25005 0.5
44 1 0.075 0.25005 0.5
46 1 0.125 0.25005 0.5
48 1 0.175 0.25005 0.5
50 1 0.225 0.25005 0.5
52 1 0.275 0.25005 0.5
54 1 0.325 0.25005 0.5
56 1 0.375 0.25005 0.5
58 1 0.425 0.25005 0.5
60 1 0.475 0.25005 0.5
61 1 0 0.30004 0.5
62 1 0.025 0.35003 0.5
63 1 0.05 0.30004 0.5
64 1 0.075 0.35003 0.5
65 1 0.1 0.30004 0.5
66 1 0.125 0.35003 0.5
67 1 0.15 0.30004 0.5
68 1 0.175 0.35003 0.5
69 1 0.2 0.30004 0.5
70 1 0.225 0.35003 0.5
71 1 0.25 0.30004 0.5
72 1 0.275 0.35003 0.5
73 1 0.3 0.30004 0.5
74 1 0.325 0.35003 0.5
75 1 0.35 0.30004 0.5
76 1 0.375 0.35003 0.5
77 1 0.4 0.30004 0.5
78 1 0.425 0.35003 0.5
79 1 0.45 0.30004 0.5
80 1 0.475 0.35003 0.5
81 1 0 0.40002 0.5
83 1 0.05 0.40002 0.5
85 1 0.1 0.40002 0.5
87 1 0.15 0.40002 0.5
89 1 0.2 0.40002 0.5
91 1 0.25 0.40002 0.5
93 1 0.3 0.40002 0.5
95 1 0.35 0.40002 0.5
97 1 0.4 0.40002 0.5
99 1 0.45 0.40002 0.5
82 1 0.025 0.45001 0.5
84 1 0.075 0.45001 0.5
86 1 0.125 0.45001 0.5
88 1 0.175 0.45001 0.5
90 1 0.225 0.45001 0.5
92 1 0.275 0.45001 0.5
94 1 0.325 0.45001 0.5
96 1 0.375 0.45001 0.5
98 1 0.425 0.45001 0.5
100 1 0.475 0.45001 0.5
101 1 0 0.5 0.5
102 1 0.025 0.54999 0.5
103 1 0.05 0.5 0.5
104 1 0.075 0.54999 0.5
105 1 0.1 0.5 0.5
106 1 0.125 0.54999 0.5
107 1 0.15 0.5 0.5
108 1 0.175 0.54999 0.5
109 1 0.2 0.5 0.5
110 1 0.225 0.54999 0.5
111 1 0.25 0.5 0.5
112 1 0.275 0.54999 0.5
113 1 0.3 0.5 0.5
114 1 0.325 0.54999 0.5
115 1 0.35 0.5 0.5
116 1 0.375 0.54999 0.5
117 1 0.4 0.5 0.5
118 1 0.425 0.54999 0.5
119 1 0.45 0.5 0.5
120 1 0.475 0.54999 0.5
121 1 0 0.59998 0.5
123 1 0.05 0.59998 0.5
125 1 0.1 0.59998 0.5
127 1 0.15 0.59998 0.5
129 1 0.2 0.59998 0.5
131 1 0.25 0.59998 0.5
133 1 0.3 0.59998 0.5
135 1 0.35 0.59998 0.5
137 1 0.4 0.59998 0.5
139 1 0.45 0.59998 0.5
122 1 0.025 0.64997 0.5
141 1 0 0.69996 0.5
143 1 0.05 0.69996 0.5
124 1 0.075 0.64997 0.5
145 1 0.1 0.69996 0.5
126 1 0.125 0.64997 0.5
128 1 0.175 0.64997 0.5
147 1 0.15 0.69996 0.5
130 1 0.225 0.64997 0.5
149 1 0.2 0.69996 0.5
132 1 0.275 0.64997 0.5
151 1 0.25 0.69996 0.5
153 1 0.3 0.69996 0.5
134 1 0.325 0.64997 0.5
155 1 0.35 0.69996 0.5
136 1 0.375 0.64997 0.5
138 1 0.425 0.64997 0.5
157 1 0.4 0.69996 0.5
140 1 0.475 0.64997 0.5
159 1 0.45 0.69996 0.5
142 1 0.025 0.74995 0.5
144 1 0.075 0.74995 0.5
146 1 0.125 0.74995 0.5
148 1 0.175 0.74995 0.5
150 1 0.225 0.74995 0.5
152 1 0.275 0.74995 0.5
154 1 0.325 0.74995 0.5
156 1 0.375 0.74995 0.5
158 1 0.425 0.74995 0.5
160 1 0.475 0.74995 0.5
161 1 0 0.79994 0.5
162 1 0.025 0.84993 0.5
163 1 0.05 0.79994 0.5
164 1 0.075 0.84993 0.5
165 1 0.1 0.79994 0.5
166 1 0.125 0.84993 0.5
167 1 0.15 0.79994 0.5
168 1 0.175 0.84993 0.5
169 1 0.2 0.79994 0.5
170 1 0.225 0.84993 0.5
171 1 0.25 0.79994 0.5
172 1 0.275 0.84993 0.5
173 1 0.3 0.79994 0.5
174 1 0.325 0.84993 0.5
175 1 0.35 0.79994 0.5
176 1 0.375 0.84993 0.5
177 1 0.4 0.79994 0.5
178 1 0.425 0.84993 0.5
179 1 0.45 0.79994 0.5
180 1 0.475 0.84993 0.5
181 1 0 0.89992 0.5
183 1 0.05 0.89992 0.5
185 1 0.1 0.89992 0.5
187 1 0.15 0.89992 0.5
189 1 0.2 0.89992 0.5
191 1 0.25 0.89992 0.5
193 1 0.3 0.89992 0.5
195 1 0.35 0.89992 0.5
197 1 0.4 0.89992 0.5
199 1 0.45 0.89992 0.5
182 1 0.025 0.94991 0.5
201 1 0 0.9999 0.5
202 1 0.05 0.9999 0.5
184 1 0.075 0.94991 0.5
203 1 0.1 0.9999 0.5
186 1 0.125 0.94991 0.5
188 1 0.175 0.94991 0.5
204 1 0.15 0.9999 0.5
190 1 0.225 0.94991 0.5
205 1 0.2 0.9999 0.5
192 1 0.275 0.94991 0.5
206 1 0.25 0.9999 0.5
207 1 0.3 0.9999 0.5
194 1 0.325 0.94991 0.5
208 1 0.35 0.9999 0.5
196 1 0.375 0.94991 0.5
198 1 0.425 0.94991 0.5
209 1 0.4 0.9999 0.5
200 1 0.475 0.94991 0.5
210 1 0.45 0.9999 0.5
211 2 0.5 9.998e-05 0.5
212 2 0.525 0.05009 0.5
213 2 0.55 9.998e-05 0.5
214 2 0.575 0.05009 0.5
215 2 0.6 9.998e-05 0.5
216 2 0.625 0.05009 0.5
217 2 0.65 9.998e-05 0.5
218 2 0.675 0.05009 0.5
219 2 0.7 9.998e-05 0.5
220 2 0.725 0.05009 0.5
221 2 0.75 9.998e-05 0.5
222 2 0.775 0.05009 0.5
223 2 0.8 9.998e-05 0.5
224 2 0.825 0.05009 0.5
225 2 0.85 9.998e-05 0.5
226 2 0.875 0.05009 0.5
227 2 0.9 9.998e-05 0.5
228 2 0.925 0.05009 0.5
229 2 0.95 9.998e-05 0.5
230 2 0.975 0.05009 0.5
231 2 0.5 0.10008 0.5
233 2 0.55 0.10008 0.5
235 2 0.6 0.10008 0.5
237 2 0.65 0.10008 0.5
239 2 0.7 0.10008 0.5
241 2 0.75 0.10008 0.5
243 2 0.8 0.10008 0.5
245 2 0.85 0.10008 0.5
247 2 0.9 0.10008 0.5
249 2 0.95 0.10008 0.5
232 1 0.525 0.15007 0.5
251 1 0.5 0.20006 0.5
253 1 0.55 0.20006 0.5
234 1 0.575 0.15007 0.5
255 1 0.6 0.20006 0.5
236 1 0.625 0.15007 0.5
238 1 0.675 0.15007 0.5
257 1 0.65 0.20006 0.5
240 1 0.725 0.15007 0.5
259 1 0.7 0.20006 0.5
242 1 0.775 0.15007 0.5
261 1 0.75 0.20006 0.5
263 1 0.8 0.20006 0.5
244 1 0.825 0.15007 0.5
265 1 0.85 0.20006 0.5
246 1 0.875 0.15007 0.5
248 1 0.925 0.15007 0.5
267 1 0.9 0.20006 0.5
250 1 0.975 0.15007 0.5
269 1 0.95 0.20006 0.5
252 1 0.525 0.25005 0.5
254 1 0.575 0.25005 0.5
256 1 0.625 0.25005 0.5
258 1 0.675 0.25005 0.5
260 1 0.725 0.25005 0.5
262 1 0.775 0.25005 0.5
264 1 0.825 0.25005 0.5
266 1 0.875 0.25005 0.5
268 1 0.925 0.25005 0.5
270 1 0.975 0.25005 0.5
271 1 0.5 0.30004 0.5
272 1 0.525 0.35003 0.5
273 1 0.55 0.30004 0.5
274 1 0.575 0.35003 0.5
275 1 0.6 0.30004 0.5
276 1 0.625 0.35003 0.5
277 1 0.65 0.30004 0.5
278 1 0.675 0.35003 0.5
279 1 0.7 0.30004 0.5
280 1 0.725 0.35003 0.5
281 1 0.75 0.30004 0.5
282 1 0.775 0.35003 0.5
283 1 0.8 0.30004 0.5
284 1 0.825 0.35003 0.5
285 1 0.85 0.30004 0.5
286 1 0.875 0.35003 0.5
287 1 0.9 0.30004 0.5
288 1 0.925 0.35003 0.5
289 1 0.95 0.30004 0.5
290 1 0.975 0.35003 0.5
291 1 0.5 0.40002 0.5
293 1 0.55 0.40002 0.5
295 1 0.6 0.40002 0.5
297 1 0.65 0.40002 0.5
299 1 0.7 0.40002 0.5
301 1 0.75 0.40002 0.5
303 1 0.8 0.40002 0.5
305 1 0.85 0.40002 0.5
307 1 0.9 0.40002 0.5
309 1 0.95 0.40002 0.5
292 1 0.525 0.45001 0.5
294 1 0.575 0.45001 0.5
296 1 0.625 0.45001 0.5
298 1 0.675 0.45001 0.5
300 1 0.725 0.45001 0.5
302 1 0.775 0.45001 0.5
304 1 0.825 0.45001 0.5
306 1 0.875 0.45001 0.5
308 1 0.925 0.45001 0.5
310 1 0.975 0.45001 0.5
311 1 0.5 0.5 0.5
312 1 0.525 0.54999 0.5
313 1 0.55 0.5 0.5
314 1 0.575 0.54999 0.5
315 1 0.6 0.5 0.5
316 1 0.625 0.54999 0.5
317 1 0.65 0.5 0.5
318 1 0.675 0.54999 0.5
319 1 0.7 0.5 0.5
320 1 0.725 0.54999 0.5
321 1 0.75 0.5 0.5
322 1 0.775 0.54999 0.5
323 1 0.8 0.5 0.5
324 1 0.825 0.54999 0.5
325 1 0.85 0.5 0.5
326 1 0.875 0.54999 0.5
327 1 0.9 0.5 0.5
328 1 0.925 0.54999 0.5
329 1 0.95 0.5 0.5
330 1 0.975 0.54999 0.5
331 1 0.5 0.59998 0.5
333 1 0.55 0.59998 0.5
335 1 0.6 0.59998 0.5
337 1 0.65 0.59998 0.5
339 1 0.7 0.59998 0.5
341 1 0.75 0.59998 0.5
343 1 0.8 0.59998 0.5
345 1 0.85 0.59998 0.5
347 1 0.9 0.59998 0.5
349 1 0.95 0.59998 0.5
332 1 0.525 0.64997 0.5
351 1 0.5 0.69996 0.5
353 1 0.55 0.69996 0.5
334 1 0.575 0.64997 0.5
355 1 0.6 0.69996 0.5
336 1 0.625 0.64997 0.5
338 1 0.675 0.64997 0.5
357 1 0.65 0.69996 0.5
340 1 0.725 0.64997 0.5
359 1 0.7 0.69996 0.5
342 1 0.775 0.64997 0.5
361 1 0.75 0.69996 0.5
363 1 0.8 0.69996 0.5
344 1 0.825 0.64997 0.5
365 1 0.85 0.69996 0.5
346 1 0.875 0.64997 0.5
348 1 0.925 0.64997 0.5
367 1 0.9 0.69996 0.5
350 1 0.975 0.64997 0.5
369 1 0.95 0.69996 0.5
352 1 0.525 0.74995 0.5
354 1 0.575 0.74995 0.5
356 1 0.625 0.74995 0.5
358 1 0.675 0.74995 0.5
360 1 0.725 0.74995 0.5
362 1 0.775 0.74995 0.5
364 1 0.825 0.74995 0.5
366 1 0.875 0.74995 0.5
368 1 0.925 0.74995 0.5
370 1 0.975 0.74995 0.5
371 1 0.5 0.79994 0.5
372 1 0.525 0.84993 0.5
373 1 0.55 0.79994 0.5
374 1 0.575 0.84993 0.5
375 1 0.6 0.79994 0.5
376 1 0.625 0.84993 0.5
377 1 0.65 0.79994 0.5
378 1 0.675 0.84993 0.5
379 1 0.7 0.79994 0.5
380 1 0.725 0.84993 0.5
381 1 0.75 0.79994 0.5
382 1 0.775 0.84993 0.5
383 1 0.8 0.79994 0.5
384 1 0.825 0.84993 0.5
385 1 0.85 0.79994 0.5
386 1 0.875 0.84993 0.5
387 1 0.9 0.79994 0.5
388 1 0.925 0.84993 0.5
389 1 0.95 0.79994 0.5
390 1 0.975 0.84993 0.5
391 1 0.5 0.89992 0.5
393 1 0.55 0.89992 0.5
395 1 0.6 0.89992 0.5
397 1 0.65 0.89992 0.5
399 1 0.7 0.89992 0.5
401 1 0.75 0.89992 0.5
403 1 0.8 0.89992 0.5
405 1 0.85 0.89992 0.5
407 1 0.9 0.89992 0.5
409 1 0.95 0.89992 0.5
392 1 0.525 0.94991 0.5
411 1 0.5 0.9999 0.5
412 1 0.55 0.9999 0.5
394 1 0.575 0.94991 0.5
413 1 0.6 0.9999 0.5
396 1 0.625 0.94991 0.5
398 1 0.675 0.94991 0.5
414 1 0.65 0.9999 0.5
400 1 0.725 0.94991 0.5
415 1 0.7 0.9999 0.5
402 1 0.775 0.94991 0.5
416 1 0.75 0.9999 0.5
417 1 0.8 0.9999 0.5
404 1 0.825 0.94991 0.5
418 1 0.85 0.9999 0.5
406 1 0.875 0.94991 0.5
408 1 0.925 0.94991 0.5
419 1 0.9 0.9999 0.5
410 1 0.975 0.94991 0.5
420 1 0.95 0.9999 0.5
ITEM: TIMESTEP
250
ITEM: NUMBER OF ATOMS
420
ITEM: BOX BOUNDS pp ss pp
0.0000000000000000e+00 2.2653923264628304e+01
-1.9618873042551413e-03 1.9595370545637124e+01
-2.8317404080785380e-01 2.8317404080785380e-01
ITEM: ATOMS id type xs ys zs
1 2 0 0.00010011 0.5
2 2 0.025 0.0501551 0.5
3 2 0.05 0.00010011 0.5
4 2 0.075 0.0501551 0.5
5 2 0.1 0.00010011 0.5
6 2 0.125 0.0501551 0.5
7 2 0.15 0.00010011 0.5
8 2 0.175 0.0501551 0.5
9 2 0.2 0.00010011 0.5
10 2 0.225 0.0501551 0.5
11 2 0.25 0.00010011 0.5
12 2 0.275 0.0501551 0.5
13 2 0.3 0.00010011 0.5
14 2 0.325 0.0501551 0.5
15 2 0.35 0.00010011 0.5
16 2 0.375 0.0501551 0.5
17 2 0.4 0.00010011 0.5
18 2 0.425 0.0501551 0.5
19 2 0.45 0.00010011 0.5
20 2 0.475 0.0501551 0.5
21 2 0 0.10021 0.5
23 2 0.05 0.10021 0.5
25 2 0.1 0.10021 0.5
27 2 0.15 0.10021 0.5
29 2 0.2 0.10021 0.5
31 2 0.25 0.10021 0.5
33 2 0.3 0.10021 0.5
35 2 0.35 0.10021 0.5
37 2 0.4 0.10021 0.5
39 2 0.45 0.10021 0.5
22 1 0.0242106 0.149373 0.5
100 1 0.473227 0.4501 0.5
43 1 0.0508105 0.197489 0.5
24 1 0.0756123 0.15103 0.5
45 1 0.101883 0.196691 0.5
26 1 0.126273 0.148842 0.5
28 1 0.175414 0.150945 0.5
47 1 0.151424 0.197926 0.5
30 1 0.228529 0.150186 0.5
49 1 0.199931 0.198939 0.5
32 1 0.276955 0.151263 0.5
51 1 0.248607 0.202073 0.5
53 1 0.302705 0.200273 0.5
34 1 0.325794 0.151279 0.5
55 1 0.352372 0.199086 0.5
36 1 0.376266 0.149948 0.5
38 1 0.424711 0.148988 0.5
57 1 0.401556 0.197042 0.5
40 1 0.477143 0.151161 0.5
59 1 0.45118 0.197286 0.5
42 1 0.0251128 0.249055 0.5
44 1 0.0745046 0.247657 0.5
46 1 0.124084 0.251659 0.5
48 1 0.176003 0.249306 0.5
50 1 0.225673 0.251897 0.5
52 1 0.278951 0.250335 0.5
54 1 0.327164 0.248569 0.5
56 1 0.378559 0.249104 0.5
58 1 0.427882 0.247041 0.5
60 1 0.47565 0.250709 0.5
41 1 0.000613739 0.19835 0.5
62 1 0.0271906 0.347375 0.5
63 1 0.0500413 0.296807 0.5
64 1 0.075793 0.348612 0.5
65 1 0.101311 0.30151 0.5
66 1 0.125383 0.351043 0.5
67 1 0.152061 0.299642 0.5
68 1 0.174831 0.349877 0.5
69 1 0.200127 0.301127 0.5
70 1 0.226451 0.349762 0.5
71 1 0.251438 0.297955 0.5
72 1 0.276594 0.351352 0.5
73 1 0.302865 0.300082 0.5
74 1 0.325535 0.351484 0.5
75 1 0.349772 0.298949 0.5
76 1 0.378393 0.347738 0.5
77 1 0.400766 0.297578 0.5
78 1 0.425144 0.352654 0.5
79 1 0.449285 0.302044 0.5
80 1 0.473946 0.350902 0.5
81 1 0.000603584 0.399798 0.5
83 1 0.0500276 0.39751 0.5
85 1 0.104371 0.401546 0.5
87 1 0.152828 0.404187 0.5
89 1 0.202827 0.401438 0.5
91 1 0.251146 0.400954 0.5
93 1 0.301599 0.400671 0.5
95 1 0.348293 0.402924 0.5
97 1 0.398323 0.402023 0.5
99 1 0.449466 0.40139 0.5
82 1 0.0272339 0.446812 0.5
84 1 0.0770848 0.44861 0.5
86 1 0.126769 0.454956 0.5
88 1 0.176318 0.454321 0.5
90 1 0.22582 0.453226 0.5
92 1 0.275924 0.449201 0.5
94 1 0.325016 0.454066 0.5
96 1 0.373653 0.451806 0.5
98 1 0.421804 0.450639 0.5
291 1 0.498884 0.402715 0.5
271 1 0.499067 0.300968 0.5
103 1 0.0516164 0.498829 0.5
101 1 0.00348396 0.497457 0.5
119 1 0.451256 0.498985 0.5
117 1 0.399338 0.498455 0.5
210 1 0.453267 0.994816 0.5
102 1 0.0246475 0.550994 0.5
161 1 0.000746855 0.799794 0.5
104 1 0.0748698 0.550571 0.5
105 1 0.100326 0.503242 0.5
106 1 0.125188 0.555154 0.5
107 1 0.150415 0.505132 0.5
108 1 0.175325 0.555443 0.5
109 1 0.199234 0.504442 0.5
110 1 0.223288 0.558193 0.5
111 1 0.248848 0.503143 0.5
112 1 0.272122 0.55267 0.5
113 1 0.298993 0.501228 0.5
114 1 0.324832 0.549649 0.5
207 1 0.29626 0.996275 0.5
116 1 0.373241 0.548855 0.5
331 1 0.497528 0.597852 0.5
118 1 0.424119 0.547564 0.5
194 1 0.324965 0.943053 0.5
120 1 0.473658 0.549906 0.5
200 1 0.477294 0.943654 0.5
123 1 0.0479668 0.600167 0.5
125 1 0.0972371 0.600583 0.5
127 1 0.149221 0.60394 0.5
129 1 0.197617 0.606846 0.5
131 1 0.249687 0.604926 0.5
133 1 0.299457 0.600192 0.5
135 1 0.347322 0.600947 0.5
137 1 0.398187 0.599426 0.5
139 1 0.448472 0.599832 0.5
122 1 0.0254684 0.650599 0.5
209 1 0.401857 0.992804 0.5
143 1 0.0470011 0.702014 0.5
124 1 0.0740756 0.650539 0.5
145 1 0.0975494 0.701171 0.5
126 1 0.124714 0.651364 0.5
128 1 0.173438 0.654884 0.5
147 1 0.146973 0.704553 0.5
130 1 0.223096 0.655024 0.5
149 1 0.198187 0.702152 0.5
132 1 0.273734 0.655023 0.5
151 1 0.249851 0.702729 0.5
153 1 0.300532 0.702601 0.5
134 1 0.324087 0.64857 0.5
155 1 0.352672 0.702106 0.5
136 1 0.377508 0.651758 0.5
138 1 0.425881 0.648668 0.5
157 1 0.401361 0.701129 0.5
140 1 0.474359 0.647873 0.5
159 1 0.451489 0.698423 0.5
142 1 0.0240991 0.749961 0.5
144 1 0.0730864 0.749958 0.5
146 1 0.12295 0.750598 0.5
148 1 0.173697 0.752799 0.5
150 1 0.224034 0.751034 0.5
152 1 0.274141 0.753003 0.5
154 1 0.32485 0.750909 0.5
156 1 0.373932 0.750613 0.5
158 1 0.428407 0.747275 0.5
160 1 0.48008 0.746496 0.5
198 1 0.427092 0.946509 0.5
162 1 0.0225803 0.848638 0.5
163 1 0.0480764 0.798672 0.5
164 1 0.0710799 0.847823 0.5
165 1 0.0968013 0.798517 0.5
166 1 0.120734 0.849872 0.5
167 1 0.146523 0.80273 0.5
168 1 0.172997 0.85127 0.5
169 1 0.195905 0.801882 0.5
170 1 0.220551 0.850055 0.5
171 1 0.24665 0.801429 0.5
172 1 0.271828 0.848963 0.5
173 1 0.297179 0.79924 0.5
174 1 0.321263 0.847342 0.5
175 1 0.349915 0.800255 0.5
176 1 0.380523 0.849946 0.5
177 1 0.403876 0.79773 0.5
178 1 0.427562 0.846933 0.5
179 1 0.455182 0.795026 0.5
180 1 0.476364 0.844894 0.5
196 1 0.374764 0.94206 0.5
183 1 0.0452193 0.89738 0.5
185 1 0.0929482 0.896077 0.5
187 1 0.145563 0.896647 0.5
189 1 0.196352 0.900083 0.5
191 1 0.248563 0.900585 0.5
193 1 0.29728 0.895884 0.5
195 1 0.350836 0.892878 0.5
197 1 0.401801 0.898707 0.5
199 1 0.452476 0.894466 0.5
182 1 0.0215516 0.94691 0.5
208 1 0.352698 0.991096 0.5
202 1 0.043445 0.999121 0.5
184 1 0.0699409 0.944816 0.5
203 1 0.0969168 0.995495 0.5
186 1 0.119809 0.946398 0.5
188 1 0.168832 0.947111 0.5
204 1 0.149441 0.999025 0.5
190 1 0.220893 0.945471 0.5
205 1 0.199113 0.995742 0.5
192 1 0.274397 0.947781 0.5
206 1 0.24703 0.990391 0.5
115 1 0.350297 0.501032 0.5
211 2 0.5 0.00010011 0.5
212 2 0.525 0.0501551 0.5
213 2 0.55 0.00010011 0.5
214 2 0.575 0.0501551 0.5
215 2 0.6 0.00010011 0.5
216 2 0.625 0.0501551 0.5
217 2 0.65 0.00010011 0.5
218 2 0.675 0.0501551 0.5
219 2 0.7 0.00010011 0.5
220 2 0.725 0.0501551 0.5
221 2 0.75 0.00010011 0.5
222 2 0.775 0.0501551 0.5
223 2 0.8 0.00010011 0.5
224 2 0.825 0.0501551 0.5
225 2 0.85 0.00010011 0.5
226 2 0.875 0.0501551 0.5
227 2 0.9 0.00010011 0.5
228 2 0.925 0.0501551 0.5
229 2 0.95 0.00010011 0.5
230 2 0.975 0.0501551 0.5
231 2 0.5 0.10021 0.5
233 2 0.55 0.10021 0.5
235 2 0.6 0.10021 0.5
237 2 0.65 0.10021 0.5
239 2 0.7 0.10021 0.5
241 2 0.75 0.10021 0.5
243 2 0.8 0.10021 0.5
245 2 0.85 0.10021 0.5
247 2 0.9 0.10021 0.5
249 2 0.95 0.10021 0.5
232 1 0.52762 0.148723 0.5
251 1 0.502179 0.199584 0.5
253 1 0.551487 0.200655 0.5
234 1 0.574893 0.150162 0.5
255 1 0.601966 0.200697 0.5
236 1 0.62531 0.152578 0.5
238 1 0.6749 0.147911 0.5
257 1 0.651159 0.200716 0.5
240 1 0.72371 0.149901 0.5
259 1 0.698696 0.199048 0.5
242 1 0.77361 0.152508 0.5
261 1 0.748387 0.203258 0.5
263 1 0.798185 0.202017 0.5
244 1 0.823537 0.150185 0.5
265 1 0.8478 0.200777 0.5
246 1 0.873006 0.149357 0.5
248 1 0.924513 0.151653 0.5
267 1 0.897695 0.20058 0.5
250 1 0.975806 0.151081 0.5
269 1 0.951102 0.200413 0.5
252 1 0.525092 0.251321 0.5
254 1 0.574317 0.253871 0.5
256 1 0.623724 0.24963 0.5
258 1 0.676901 0.251327 0.5
260 1 0.723168 0.249797 0.5
262 1 0.772616 0.250851 0.5
264 1 0.821422 0.251589 0.5
266 1 0.873406 0.24866 0.5
268 1 0.925375 0.248561 0.5
270 1 0.976849 0.248089 0.5
327 1 0.900061 0.497518 0.5
272 1 0.524886 0.353349 0.5
273 1 0.549149 0.302932 0.5
274 1 0.575193 0.350488 0.5
275 1 0.601781 0.301815 0.5
276 1 0.625443 0.352847 0.5
277 1 0.651163 0.30032 0.5
278 1 0.676368 0.351687 0.5
279 1 0.701208 0.302718 0.5
280 1 0.727156 0.352061 0.5
281 1 0.749876 0.299155 0.5
282 1 0.774736 0.351816 0.5
283 1 0.798825 0.302234 0.5
284 1 0.825148 0.348741 0.5
285 1 0.849907 0.299263 0.5
286 1 0.872631 0.347815 0.5
287 1 0.903246 0.30025 0.5
288 1 0.927008 0.348865 0.5
289 1 0.950689 0.296523 0.5
290 1 0.977719 0.349609 0.5
310 1 0.97682 0.449684 0.5
293 1 0.54977 0.401056 0.5
295 1 0.599932 0.404563 0.5
297 1 0.652537 0.400993 0.5
299 1 0.703197 0.400859 0.5
301 1 0.75143 0.406036 0.5
303 1 0.799868 0.40101 0.5
305 1 0.848038 0.400534 0.5
307 1 0.90053 0.39674 0.5
309 1 0.95067 0.396794 0.5
292 1 0.525656 0.449237 0.5
294 1 0.573704 0.451947 0.5
296 1 0.624834 0.452688 0.5
298 1 0.675581 0.453386 0.5
300 1 0.72643 0.45446 0.5
302 1 0.778543 0.453966 0.5
304 1 0.82612 0.450195 0.5
306 1 0.875457 0.447313 0.5
308 1 0.923256 0.448327 0.5
329 1 0.95046 0.497641 0.5
61 1 0.998934 0.299742 0.5
311 1 0.500377 0.499917 0.5
313 1 0.550016 0.498474 0.5
420 1 0.944865 0.998875 0.5
312 1 0.523466 0.548919 0.5
121 1 0.999325 0.603767 0.5
314 1 0.571469 0.547385 0.5
201 1 0.995221 0.999831 0.5
316 1 0.622672 0.552811 0.5
181 1 0.997219 0.897863 0.5
318 1 0.676258 0.552025 0.5
319 1 0.701703 0.502318 0.5
320 1 0.726304 0.552936 0.5
321 1 0.751082 0.501258 0.5
322 1 0.775676 0.554818 0.5
323 1 0.800089 0.506165 0.5
324 1 0.825624 0.553945 0.5
325 1 0.849399 0.500989 0.5
326 1 0.878024 0.55068 0.5
317 1 0.651245 0.502267 0.5
328 1 0.925383 0.547156 0.5
141 1 0.998777 0.700391 0.5
330 1 0.973889 0.549604 0.5
410 1 0.973657 0.948669 0.5
333 1 0.550306 0.598802 0.5
335 1 0.600672 0.60167 0.5
337 1 0.651773 0.600653 0.5
339 1 0.700847 0.5986 0.5
341 1 0.750249 0.600541 0.5
343 1 0.799466 0.601345 0.5
345 1 0.85209 0.60088 0.5
347 1 0.902751 0.600341 0.5
349 1 0.951647 0.598686 0.5
332 1 0.524116 0.646497 0.5
351 1 0.499558 0.695715 0.5
353 1 0.550445 0.698353 0.5
334 1 0.573648 0.64958 0.5
355 1 0.600684 0.697891 0.5
336 1 0.624551 0.647356 0.5
338 1 0.676102 0.649752 0.5
357 1 0.65073 0.697151 0.5
340 1 0.725786 0.648332 0.5
359 1 0.702694 0.700043 0.5
342 1 0.776579 0.651148 0.5
361 1 0.751606 0.698965 0.5
363 1 0.802643 0.702187 0.5
344 1 0.825166 0.648976 0.5
365 1 0.85028 0.700152 0.5
346 1 0.874973 0.651718 0.5
348 1 0.924899 0.649703 0.5
367 1 0.89967 0.70034 0.5
350 1 0.974577 0.648463 0.5
369 1 0.949037 0.700735 0.5
352 1 0.527188 0.747508 0.5
354 1 0.575972 0.747678 0.5
356 1 0.624368 0.747512 0.5
358 1 0.67424 0.748619 0.5
360 1 0.726972 0.749805 0.5
362 1 0.776456 0.747937 0.5
364 1 0.825404 0.751432 0.5
366 1 0.873415 0.750076 0.5
368 1 0.922435 0.7506 0.5
370 1 0.972349 0.750634 0.5
371 1 0.504361 0.797682 0.5
372 1 0.526018 0.84605 0.5
373 1 0.55157 0.796787 0.5
374 1 0.575567 0.845368 0.5
375 1 0.600783 0.798192 0.5
376 1 0.62481 0.845397 0.5
377 1 0.649112 0.796404 0.5
378 1 0.672639 0.842759 0.5
379 1 0.700882 0.793697 0.5
380 1 0.725441 0.844431 0.5
381 1 0.754698 0.79734 0.5
382 1 0.777232 0.847972 0.5
383 1 0.800205 0.797142 0.5
384 1 0.824783 0.847771 0.5
385 1 0.851826 0.800596 0.5
386 1 0.874661 0.848473 0.5
387 1 0.898547 0.798758 0.5
388 1 0.924246 0.847931 0.5
389 1 0.94914 0.798283 0.5
390 1 0.974575 0.84621 0.5
391 1 0.501985 0.896316 0.5
393 1 0.552392 0.893225 0.5
395 1 0.603098 0.893828 0.5
397 1 0.65089 0.891812 0.5
399 1 0.697942 0.892757 0.5
401 1 0.749861 0.894396 0.5
403 1 0.800801 0.896326 0.5
405 1 0.850833 0.894959 0.5
407 1 0.899478 0.895122 0.5
409 1 0.947743 0.896813 0.5
392 1 0.528679 0.942734 0.5
419 1 0.896069 0.997853 0.5
412 1 0.553453 0.989053 0.5
394 1 0.577993 0.940031 0.5
413 1 0.602951 0.994782 0.5
396 1 0.624894 0.943716 0.5
398 1 0.673643 0.942425 0.5
414 1 0.652739 0.995189 0.5
400 1 0.7259 0.945508 0.5
415 1 0.702643 0.991984 0.5
402 1 0.775879 0.942952 0.5
416 1 0.752388 0.99112 0.5
417 1 0.797556 0.998364 0.5
404 1 0.823834 0.944211 0.5
418 1 0.8476 0.993979 0.5
406 1 0.874378 0.944651 0.5
408 1 0.924861 0.945014 0.5
411 1 0.504479 0.991474 0.5
315 1 0.601264 0.499612 0.5
ITEM: TIMESTEP
500
ITEM: NUMBER OF ATOMS
420
ITEM: BOX BOUNDS pp ss pp
0.0000000000000000e+00 2.2653923264628304e+01
-1.9618873042551413e-03 1.9522174039608316e+01
-2.8317404080785380e-01 2.8317404080785380e-01
ITEM: ATOMS id type xs ys zs
1 2 0 0.000100485 0.5
2 2 0.025 0.0503431 0.5
3 2 0.05 0.000100485 0.5
4 2 0.075 0.0503431 0.5
5 2 0.1 0.000100485 0.5
6 2 0.125 0.0503431 0.5
7 2 0.15 0.000100485 0.5
8 2 0.175 0.0503431 0.5
9 2 0.2 0.000100485 0.5
10 2 0.225 0.0503431 0.5
11 2 0.25 0.000100485 0.5
12 2 0.275 0.0503431 0.5
13 2 0.3 0.000100485 0.5
14 2 0.325 0.0503431 0.5
15 2 0.35 0.000100485 0.5
16 2 0.375 0.0503431 0.5
17 2 0.4 0.000100485 0.5
18 2 0.425 0.0503431 0.5
19 2 0.45 0.000100485 0.5
20 2 0.475 0.0503431 0.5
21 2 0 0.100586 0.5
23 2 0.05 0.100586 0.5
25 2 0.1 0.100586 0.5
27 2 0.15 0.100586 0.5
29 2 0.2 0.100586 0.5
31 2 0.25 0.100586 0.5
33 2 0.3 0.100586 0.5
35 2 0.35 0.100586 0.5
37 2 0.4 0.100586 0.5
39 2 0.45 0.100586 0.5
22 1 0.0254446 0.150436 0.5
100 1 0.474003 0.452822 0.5
43 1 0.0531459 0.203126 0.5
24 1 0.0751554 0.150036 0.5
45 1 0.100459 0.201696 0.5
26 1 0.125575 0.150742 0.5
28 1 0.174427 0.15005 0.5
47 1 0.150117 0.199319 0.5
30 1 0.225589 0.150828 0.5
49 1 0.198538 0.198438 0.5
32 1 0.273792 0.15131 0.5
51 1 0.24744 0.200946 0.5
53 1 0.298916 0.200444 0.5
34 1 0.3248 0.152389 0.5
55 1 0.345848 0.202647 0.5
36 1 0.375185 0.151474 0.5
38 1 0.422378 0.150636 0.5
57 1 0.398306 0.202764 0.5
40 1 0.473642 0.149016 0.5
59 1 0.44836 0.201444 0.5
42 1 0.0255611 0.253346 0.5
44 1 0.0765591 0.25191 0.5
46 1 0.126373 0.255486 0.5
48 1 0.17683 0.252651 0.5
50 1 0.224398 0.250516 0.5
52 1 0.274933 0.249793 0.5
54 1 0.323339 0.254467 0.5
56 1 0.372786 0.256178 0.5
58 1 0.423758 0.251875 0.5
60 1 0.473012 0.250937 0.5
61 1 0.00173899 0.302881 0.5
62 1 0.0253306 0.349713 0.5
63 1 0.0510858 0.301207 0.5
64 1 0.0746382 0.350602 0.5
65 1 0.0977192 0.301297 0.5
66 1 0.123813 0.351728 0.5
67 1 0.151179 0.301892 0.5
68 1 0.174523 0.350372 0.5
69 1 0.201238 0.301286 0.5
70 1 0.223814 0.351506 0.5
71 1 0.250842 0.298997 0.5
72 1 0.274659 0.354719 0.5
73 1 0.298963 0.302759 0.5
74 1 0.324126 0.352649 0.5
75 1 0.346183 0.302575 0.5
76 1 0.37343 0.351057 0.5
77 1 0.399267 0.305051 0.5
78 1 0.42648 0.352248 0.5
79 1 0.450333 0.302643 0.5
80 1 0.476764 0.352522 0.5
81 1 0.00275516 0.40163 0.5
83 1 0.0516983 0.399909 0.5
85 1 0.100663 0.401545 0.5
87 1 0.149358 0.401314 0.5
89 1 0.201027 0.402612 0.5
91 1 0.251157 0.399828 0.5
93 1 0.300199 0.402114 0.5
95 1 0.351327 0.401188 0.5
97 1 0.400003 0.400178 0.5
99 1 0.452258 0.403775 0.5
82 1 0.0258812 0.450561 0.5
84 1 0.0741366 0.4503 0.5
86 1 0.123155 0.451676 0.5
88 1 0.173615 0.449228 0.5
90 1 0.225574 0.448312 0.5
92 1 0.273538 0.451015 0.5
94 1 0.326241 0.447215 0.5
96 1 0.376873 0.451406 0.5
98 1 0.425308 0.448582 0.5
251 1 0.498454 0.19907 0.5
41 1 0.00308075 0.200622 0.5
107 1 0.150376 0.497898 0.5
111 1 0.248577 0.498427 0.5
109 1 0.20049 0.4954 0.5
101 1 0.00227737 0.498932 0.5
103 1 0.0505923 0.498057 0.5
113 1 0.300326 0.499473 0.5
105 1 0.0985281 0.497373 0.5
210 1 0.452253 0.989698 0.5
102 1 0.0268523 0.549803 0.5
115 1 0.352199 0.500731 0.5
104 1 0.0738851 0.549456 0.5
371 1 0.499199 0.794698 0.5
106 1 0.12246 0.546313 0.5
351 1 0.499029 0.696278 0.5
108 1 0.17349 0.545535 0.5
411 1 0.499518 0.995126 0.5
110 1 0.224025 0.546127 0.5
141 1 0.000757744 0.698206 0.5
112 1 0.274072 0.547825 0.5
206 1 0.253547 0.995627 0.5
114 1 0.322076 0.550164 0.5
207 1 0.304683 0.996462 0.5
116 1 0.372828 0.551625 0.5
119 1 0.451134 0.502032 0.5
118 1 0.421384 0.548605 0.5
194 1 0.326405 0.944877 0.5
120 1 0.474249 0.549657 0.5
200 1 0.476703 0.941286 0.5
123 1 0.0501293 0.599475 0.5
125 1 0.0996452 0.594634 0.5
127 1 0.149107 0.595574 0.5
129 1 0.1978 0.595499 0.5
131 1 0.24908 0.59639 0.5
133 1 0.297024 0.597627 0.5
135 1 0.346099 0.598219 0.5
137 1 0.39703 0.599562 0.5
139 1 0.44591 0.597387 0.5
122 1 0.0262843 0.648725 0.5
209 1 0.40286 0.993377 0.5
143 1 0.0495533 0.699129 0.5
124 1 0.0754684 0.644386 0.5
145 1 0.0984593 0.69641 0.5
126 1 0.123363 0.645025 0.5
128 1 0.17233 0.647198 0.5
147 1 0.147018 0.695165 0.5
130 1 0.222906 0.645051 0.5
149 1 0.197909 0.698342 0.5
132 1 0.272939 0.646706 0.5
151 1 0.245534 0.693797 0.5
153 1 0.294582 0.699338 0.5
134 1 0.32183 0.646797 0.5
155 1 0.348097 0.695168 0.5
136 1 0.373379 0.649204 0.5
138 1 0.42389 0.648968 0.5
157 1 0.396618 0.699174 0.5
140 1 0.471791 0.64572 0.5
159 1 0.450186 0.696448 0.5
142 1 0.0223923 0.749696 0.5
144 1 0.0734965 0.747404 0.5
146 1 0.123761 0.749733 0.5
148 1 0.173264 0.746639 0.5
150 1 0.221471 0.747133 0.5
152 1 0.269949 0.747618 0.5
154 1 0.322642 0.747549 0.5
156 1 0.369848 0.74612 0.5
158 1 0.422609 0.747245 0.5
160 1 0.473878 0.749097 0.5
198 1 0.425783 0.94277 0.5
162 1 0.0226731 0.846005 0.5
163 1 0.048609 0.796399 0.5
164 1 0.0731216 0.848191 0.5
165 1 0.100352 0.798226 0.5
166 1 0.122952 0.849888 0.5
167 1 0.151117 0.800496 0.5
168 1 0.176399 0.850441 0.5
169 1 0.198157 0.80049 0.5
170 1 0.225416 0.850712 0.5
171 1 0.247006 0.799194 0.5
172 1 0.272929 0.848899 0.5
173 1 0.295303 0.796761 0.5
174 1 0.322247 0.849037 0.5
175 1 0.347317 0.800082 0.5
176 1 0.374662 0.84595 0.5
177 1 0.397847 0.7937 0.5
178 1 0.424066 0.843974 0.5
179 1 0.44819 0.795668 0.5
180 1 0.472848 0.845862 0.5
196 1 0.377636 0.94254 0.5
183 1 0.0493493 0.896832 0.5
185 1 0.0985335 0.900835 0.5
187 1 0.148774 0.897598 0.5
189 1 0.200371 0.900955 0.5
191 1 0.251774 0.900008 0.5
193 1 0.300661 0.900212 0.5
195 1 0.349161 0.89569 0.5
197 1 0.399475 0.892364 0.5
199 1 0.450501 0.894857 0.5
182 1 0.023267 0.945066 0.5
208 1 0.353802 0.99533 0.5
202 1 0.0482863 0.997331 0.5
184 1 0.0723036 0.946277 0.5
203 1 0.0984815 0.998381 0.5
186 1 0.124259 0.949599 0.5
188 1 0.172835 0.94878 0.5
204 1 0.150001 0.998615 0.5
190 1 0.225318 0.946113 0.5
205 1 0.199002 0.998785 0.5
192 1 0.276531 0.949982 0.5
117 1 0.401964 0.500409 0.5
121 1 0.00294695 0.59936 0.5
311 1 0.499656 0.502062 0.5
211 2 0.5 0.000100485 0.5
212 2 0.525 0.0503431 0.5
213 2 0.55 0.000100485 0.5
214 2 0.575 0.0503431 0.5
215 2 0.6 0.000100485 0.5
216 2 0.625 0.0503431 0.5
217 2 0.65 0.000100485 0.5
218 2 0.675 0.0503431 0.5
219 2 0.7 0.000100485 0.5
220 2 0.725 0.0503431 0.5
221 2 0.75 0.000100485 0.5
222 2 0.775 0.0503431 0.5
223 2 0.8 0.000100485 0.5
224 2 0.825 0.0503431 0.5
225 2 0.85 0.000100485 0.5
226 2 0.875 0.0503431 0.5
227 2 0.9 0.000100485 0.5
228 2 0.925 0.0503431 0.5
229 2 0.95 0.000100485 0.5
230 2 0.975 0.0503431 0.5
231 2 0.5 0.100586 0.5
233 2 0.55 0.100586 0.5
235 2 0.6 0.100586 0.5
237 2 0.65 0.100586 0.5
239 2 0.7 0.100586 0.5
241 2 0.75 0.100586 0.5
243 2 0.8 0.100586 0.5
245 2 0.85 0.100586 0.5
247 2 0.9 0.100586 0.5
249 2 0.95 0.100586 0.5
232 1 0.524636 0.150994 0.5
327 1 0.902823 0.500296 0.5
253 1 0.548328 0.197263 0.5
234 1 0.577038 0.149093 0.5
255 1 0.599278 0.202077 0.5
236 1 0.626458 0.152613 0.5
238 1 0.675948 0.148906 0.5
257 1 0.654422 0.19876 0.5
240 1 0.727116 0.15026 0.5
259 1 0.702812 0.199546 0.5
242 1 0.775873 0.151835 0.5
261 1 0.752531 0.202943 0.5
263 1 0.801666 0.201453 0.5
244 1 0.824931 0.151141 0.5
265 1 0.851301 0.199565 0.5
246 1 0.876347 0.150725 0.5
248 1 0.927205 0.149134 0.5
267 1 0.9018 0.200592 0.5
250 1 0.977238 0.151323 0.5
269 1 0.955153 0.202367 0.5
252 1 0.524103 0.250208 0.5
254 1 0.575265 0.251699 0.5
256 1 0.625741 0.247771 0.5
258 1 0.676146 0.249869 0.5
260 1 0.724992 0.248147 0.5
262 1 0.778205 0.249767 0.5
264 1 0.828902 0.250958 0.5
266 1 0.878472 0.248418 0.5
268 1 0.92609 0.250595 0.5
270 1 0.975325 0.254427 0.5
291 1 0.499579 0.399142 0.5
272 1 0.528178 0.350057 0.5
273 1 0.55094 0.301865 0.5
274 1 0.577378 0.349183 0.5
275 1 0.600289 0.297435 0.5
276 1 0.624679 0.348444 0.5
277 1 0.649998 0.300332 0.5
278 1 0.674123 0.35038 0.5
279 1 0.703139 0.299351 0.5
280 1 0.728598 0.350698 0.5
281 1 0.752788 0.298584 0.5
282 1 0.775378 0.347753 0.5
283 1 0.805586 0.297848 0.5
284 1 0.827291 0.347812 0.5
285 1 0.85295 0.301221 0.5
286 1 0.879517 0.349245 0.5
287 1 0.902648 0.301722 0.5
288 1 0.92899 0.351579 0.5
289 1 0.953375 0.303058 0.5
290 1 0.976116 0.355246 0.5
310 1 0.978219 0.452585 0.5
293 1 0.550764 0.400574 0.5
295 1 0.598643 0.400696 0.5
297 1 0.646516 0.400079 0.5
299 1 0.69876 0.397968 0.5
301 1 0.751525 0.400552 0.5
303 1 0.801757 0.400329 0.5
305 1 0.851155 0.399675 0.5
307 1 0.900857 0.398544 0.5
309 1 0.951513 0.402329 0.5
292 1 0.521565 0.44905 0.5
294 1 0.572021 0.450827 0.5
296 1 0.624216 0.449345 0.5
298 1 0.67452 0.44816 0.5