ITEM: TIMESTEP
1750
ITEM: NUMBER OF ATOMS
420
ITEM: BOX BOUNDS pp ss pp
0.0000000000000000e+00 2.2653923264628304e+01
-1.9618873042551413e-03 1.9541864412127165e+01
-2.8317404080785380e-01 2.8317404080785380e-01
ITEM: ATOMS id type xs ys zs
1 2 0 0.000100384 0.5
2 2 0.025 0.0502924 0.5
3 2 0.05 0.000100384 0.5
4 2 0.075 0.0502924 0.5
5 2 0.1 0.000100384 0.5
6 2 0.125 0.0502924 0.5
7 2 0.15 0.000100384 0.5
8 2 0.175 0.0502924 0.5
9 2 0.2 0.000100384 0.5
10 2 0.225 0.0502924 0.5
11 2 0.25 0.000100384 0.5
12 2 0.275 0.0502924 0.5
13 2 0.3 0.000100384 0.5
14 2 0.325 0.0502924 0.5
15 2 0.35 0.000100384 0.5
16 2 0.375 0.0502924 0.5
17 2 0.4 0.000100384 0.5
18 2 0.425 0.0502924 0.5
19 2 0.45 0.000100384 0.5
20 2 0.475 0.0502924 0.5
21 2 0 0.100484 0.5
23 2 0.05 0.100484 0.5
22 1 0.0255696 0.148566 0.5
25 2 0.1 0.100484 0.5
24 1 0.0747285 0.148247 0.5
27 2 0.15 0.100484 0.5
26 1 0.12379 0.150447 0.5
28 1 0.174027 0.147981 0.5
29 2 0.2 0.100484 0.5
30 1 0.222104 0.148679 0.5
31 2 0.25 0.100484 0.5
33 2 0.3 0.100484 0.5
32 1 0.273624 0.148348 0.5
35 2 0.35 0.100484 0.5
34 1 0.324453 0.148537 0.5
36 1 0.375011 0.148084 0.5
37 2 0.4 0.100484 0.5
38 1 0.42429 0.147264 0.5
39 2 0.45 0.100484 0.5
40 1 0.477559 0.14856 0.5
43 1 0.0514642 0.196633 0.5
45 1 0.0990077 0.198847 0.5
47 1 0.148143 0.199169 0.5
48 1 0.173805 0.246616 0.5
49 1 0.19969 0.197311 0.5
51 1 0.247183 0.195142 0.5
53 1 0.300617 0.194838 0.5
52 1 0.273957 0.245791 0.5
55 1 0.350055 0.196997 0.5
54 1 0.324239 0.245772 0.5
56 1 0.374032 0.245347 0.5
57 1 0.400809 0.195715 0.5
58 1 0.424438 0.245787 0.5
59 1 0.450678 0.195566 0.5
98 1 0.424509 0.444483 0.5
42 1 0.0256053 0.248132 0.5
63 1 0.0511284 0.296366 0.5
44 1 0.0749015 0.245871 0.5
46 1 0.12523 0.248302 0.5
65 1 0.0983466 0.295845 0.5
67 1 0.149806 0.295194 0.5
50 1 0.225356 0.247977 0.5
69 1 0.197501 0.294928 0.5
71 1 0.249677 0.296667 0.5
73 1 0.297982 0.294965 0.5
75 1 0.349096 0.295073 0.5
77 1 0.39865 0.29437 0.5
60 1 0.473216 0.243067 0.5
96 1 0.377123 0.446501 0.5
79 1 0.449263 0.295087 0.5
62 1 0.0251423 0.34569 0.5
83 1 0.0518841 0.39749 0.5
64 1 0.0766292 0.346051 0.5
66 1 0.125301 0.345675 0.5
85 1 0.101798 0.396469 0.5
68 1 0.175821 0.34463 0.5
87 1 0.150938 0.394731 0.5
70 1 0.224151 0.348224 0.5
89 1 0.198447 0.39804 0.5
91 1 0.248263 0.395564 0.5
72 1 0.277029 0.345067 0.5
93 1 0.29916 0.394083 0.5
74 1 0.327147 0.344478 0.5
76 1 0.375121 0.344387 0.5
95 1 0.350781 0.394433 0.5
78 1 0.423507 0.343467 0.5
97 1 0.400496 0.394531 0.5
80 1 0.475701 0.345099 0.5
99 1 0.450001 0.394916 0.5
103 1 0.0498207 0.498665 0.5
82 1 0.0282389 0.447208 0.5
100 1 0.475576 0.443079 0.5
84 1 0.0767025 0.445729 0.5
86 1 0.123808 0.445237 0.5
107 1 0.149475 0.494632 0.5
88 1 0.176299 0.447086 0.5
105 1 0.100361 0.497897 0.5
90 1 0.226061 0.449608 0.5
109 1 0.202457 0.498008 0.5
92 1 0.276805 0.445722 0.5
111 1 0.252765 0.49766 0.5
113 1 0.304374 0.495924 0.5
94 1 0.326228 0.443497 0.5
115 1 0.351117 0.497129 0.5
117 1 0.400964 0.496899 0.5
119 1 0.449499 0.493988 0.5
311 1 0.498004 0.491377 0.5
291 1 0.499932 0.394638 0.5
101 1 -0.000289073 0.497588 0.5
81 1 0.000379008 0.398961 0.5
271 1 0.498717 0.292773 0.5
41 1 0.00406706 0.198909 0.5
102 1 0.0248004 0.548057 0.5
104 1 0.0736962 0.547662 0.5
106 1 0.125096 0.546355 0.5
108 1 0.175262 0.546818 0.5
110 1 0.223643 0.548044 0.5
112 1 0.273339 0.547571 0.5
114 1 0.321638 0.548086 0.5
116 1 0.373943 0.550175 0.5
118 1 0.422618 0.54679 0.5
120 1 0.471922 0.546485 0.5
123 1 0.0508286 0.598419 0.5
122 1 0.0261952 0.645746 0.5
200 1 0.471915 0.942443 0.5
125 1 0.102213 0.594514 0.5
124 1 0.0777917 0.644658 0.5
127 1 0.150826 0.599424 0.5
126 1 0.125857 0.647381 0.5
128 1 0.174539 0.65 0.5
129 1 0.199503 0.595834 0.5
130 1 0.223617 0.646814 0.5
131 1 0.247114 0.59685 0.5
133 1 0.297623 0.599486 0.5
132 1 0.272461 0.648396 0.5
135 1 0.347446 0.594928 0.5
134 1 0.322614 0.647164 0.5
136 1 0.373765 0.647745 0.5
137 1 0.4003 0.59804 0.5
138 1 0.424665 0.647728 0.5
196 1 0.375091 0.944249 0.5
139 1 0.450342 0.599335 0.5
140 1 0.477442 0.648588 0.5
143 1 0.0530631 0.69443 0.5
142 1 0.0259497 0.746954 0.5
145 1 0.100149 0.697249 0.5
144 1 0.0757515 0.748079 0.5
146 1 0.126027 0.746799 0.5
147 1 0.14958 0.699922 0.5
148 1 0.174988 0.746447 0.5
149 1 0.198683 0.696455 0.5
150 1 0.224422 0.749772 0.5
151 1 0.245644 0.695382 0.5
153 1 0.297488 0.695054 0.5
152 1 0.270969 0.744652 0.5
155 1 0.346694 0.698706 0.5
154 1 0.323593 0.744593 0.5
157 1 0.399228 0.696177 0.5
156 1 0.373221 0.744764 0.5
158 1 0.422412 0.746547 0.5
198 1 0.424091 0.942196 0.5
159 1 0.451447 0.696212 0.5
160 1 0.473901 0.744384 0.5
163 1 0.0506831 0.795472 0.5
165 1 0.099749 0.797089 0.5
167 1 0.14929 0.797815 0.5
169 1 0.197306 0.798209 0.5
171 1 0.248763 0.799034 0.5
173 1 0.298113 0.79551 0.5
175 1 0.348276 0.797386 0.5
177 1 0.397737 0.792934 0.5
179 1 0.446113 0.793257 0.5
209 1 0.397663 0.991806 0.5
162 1 0.025276 0.847706 0.5
183 1 0.0490016 0.898931 0.5
164 1 0.0748618 0.846032 0.5
166 1 0.125842 0.845446 0.5
185 1 0.0982216 0.893128 0.5
168 1 0.173555 0.845946 0.5
187 1 0.149516 0.895986 0.5
170 1 0.222244 0.847927 0.5
189 1 0.198093 0.896458 0.5
191 1 0.248386 0.89267 0.5
172 1 0.273468 0.844777 0.5
193 1 0.295647 0.894966 0.5
174 1 0.324162 0.847378 0.5
195 1 0.349247 0.894779 0.5
176 1 0.372876 0.84322 0.5
178 1 0.42155 0.845708 0.5
197 1 0.399902 0.894304 0.5
180 1 0.472418 0.842608 0.5
199 1 0.450098 0.892432 0.5
210 1 0.447414 0.989775 0.5
182 1 0.0211495 0.947297 0.5
202 1 0.0466675 0.996121 0.5
184 1 0.0741442 0.945302 0.5
203 1 0.100198 0.99397 0.5
186 1 0.124958 0.943574 0.5
204 1 0.150388 0.993307 0.5
188 1 0.174818 0.947452 0.5
190 1 0.22434 0.947485 0.5
206 1 0.252979 0.997483 0.5
205 1 0.200949 0.998021 0.5
192 1 0.273838 0.944026 0.5
207 1 0.300032 0.995503 0.5
194 1 0.323255 0.945247 0.5
208 1 0.349772 1.00264 0.5
201 1 -0.00274314 0.996529 0.5
391 1 0.499366 0.894 0.5
371 1 0.49817 0.796552 0.5
411 1 0.49796 0.992042 0.5
141 1 0.00330247 0.694483 0.5
211 2 0.5 0.000100384 0.5
212 2 0.525 0.0502924 0.5
213 2 0.55 0.000100384 0.5
214 2 0.575 0.0502924 0.5
215 2 0.6 0.000100384 0.5
216 2 0.625 0.0502924 0.5
217 2 0.65 0.000100384 0.5
218 2 0.675 0.0502924 0.5
219 2 0.7 0.000100384 0.5
220 2 0.725 0.0502924 0.5
221 2 0.75 0.000100384 0.5
222 2 0.775 0.0502924 0.5
223 2 0.8 0.000100384 0.5
224 2 0.825 0.0502924 0.5
225 2 0.85 0.000100384 0.5
226 2 0.875 0.0502924 0.5
227 2 0.9 0.000100384 0.5
228 2 0.925 0.0502924 0.5
229 2 0.95 0.000100384 0.5
230 2 0.975 0.0502924 0.5
231 2 0.5 0.100484 0.5
233 2 0.55 0.100484 0.5
232 1 0.525791 0.149599 0.5
235 2 0.6 0.100484 0.5
234 1 0.575363 0.149146 0.5
237 2 0.65 0.100484 0.5
236 1 0.628112 0.150603 0.5
238 1 0.677426 0.148928 0.5
239 2 0.7 0.100484 0.5
240 1 0.72751 0.147552 0.5
241 2 0.75 0.100484 0.5
243 2 0.8 0.100484 0.5
242 1 0.778841 0.151214 0.5
245 2 0.85 0.100484 0.5
244 1 0.825288 0.151147 0.5
247 2 0.9 0.100484 0.5
246 1 0.875908 0.148542 0.5
248 1 0.924884 0.150086 0.5
249 2 0.95 0.100484 0.5
250 1 0.976285 0.151238 0.5
253 1 0.551538 0.199451 0.5
252 1 0.526969 0.246958 0.5
255 1 0.600857 0.199156 0.5
254 1 0.577431 0.247573 0.5
257 1 0.652118 0.199174 0.5
258 1 0.6764 0.247937 0.5
259 1 0.703432 0.197731 0.5
261 1 0.751342 0.198277 0.5
263 1 0.802941 0.198876 0.5
265 1 0.852757 0.197082 0.5
267 1 0.900683 0.198998 0.5
269 1 0.950775 0.199297 0.5
323 1 0.797726 0.495088 0.5
273 1 0.549683 0.295394 0.5
256 1 0.625792 0.247941 0.5
275 1 0.59883 0.296571 0.5
277 1 0.650104 0.296494 0.5
260 1 0.727238 0.247935 0.5
279 1 0.699593 0.296448 0.5
281 1 0.7528 0.295177 0.5
262 1 0.775699 0.244804 0.5
283 1 0.800863 0.297986 0.5
264 1 0.827083 0.248002 0.5
266 1 0.875992 0.246601 0.5
285 1 0.849651 0.296659 0.5
268 1 0.925516 0.247967 0.5
287 1 0.900901 0.297541 0.5
270 1 0.975656 0.246742 0.5
289 1 0.952501 0.300366 0.5
251 1 0.500875 0.197114 0.5
272 1 0.524879 0.344367 0.5
293 1 0.54911 0.395881 0.5
274 1 0.573257 0.343503 0.5
276 1 0.624537 0.34355 0.5
295 1 0.599409 0.39492 0.5
278 1 0.676234 0.34536 0.5
297 1 0.650193 0.397659 0.5
280 1 0.72508 0.345328 0.5
299 1 0.698688 0.394639 0.5
301 1 0.747616 0.397763 0.5
282 1 0.772603 0.346216 0.5
303 1 0.799127 0.395762 0.5
284 1 0.824025 0.346046 0.5
286 1 0.873776 0.346558 0.5
305 1 0.847888 0.398823 0.5
288 1 0.924094 0.349649 0.5
307 1 0.899626 0.399189 0.5
290 1 0.975564 0.350931 0.5
309 1 0.950393 0.398962 0.5
313 1 0.546528 0.49774 0.5
292 1 0.526578 0.443308 0.5
306 1 0.874335 0.445619 0.5
310 1 0.977615 0.447952 0.5
294 1 0.574544 0.450879 0.5
296 1 0.622731 0.444625 0.5
319 1 0.697893 0.495305 0.5
298 1 0.67605 0.444173 0.5
317 1 0.650467 0.493415 0.5
300 1 0.724407 0.447712 0.5
308 1 0.926704 0.447528 0.5
327 1 0.898239 0.493428 0.5
302 1 0.773175 0.44507 0.5
304 1 0.825374 0.44802 0.5
325 1 0.848588 0.496722 0.5
315 1 0.60163 0.497028 0.5
329 1 0.947807 0.499093 0.5
321 1 0.746032 0.500097 0.5
61 1 1.00121 0.29836 0.5
312 1 0.522783 0.546628 0.5
314 1 0.574776 0.544603 0.5
316 1 0.624909 0.545848 0.5
318 1 0.673476 0.544376 0.5
320 1 0.722198 0.546775 0.5
419 1 0.898249 0.997959 0.5
322 1 0.774081 0.546728 0.5
324 1 0.825761 0.545356 0.5
326 1 0.873641 0.547275 0.5
328 1 0.924282 0.547109 0.5
330 1 0.97496 0.547701 0.5
333 1 0.550146 0.592284 0.5
332 1 0.525072 0.647728 0.5
335 1 0.599604 0.595702 0.5
334 1 0.573961 0.643976 0.5
336 1 0.623627 0.645713 0.5
337 1 0.648424 0.593793 0.5
338 1 0.673228 0.647047 0.5
339 1 0.699544 0.59919 0.5
341 1 0.750983 0.596986 0.5
340 1 0.724214 0.649339 0.5
343 1 0.800662 0.598516 0.5
342 1 0.772434 0.646238 0.5
345 1 0.850044 0.598232 0.5
344 1 0.822308 0.648252 0.5
346 1 0.875366 0.651321 0.5
347 1 0.899301 0.598734 0.5
348 1 0.923246 0.64793 0.5
349 1 0.948383 0.596446 0.5
350 1 0.974802 0.645602 0.5
353 1 0.54917 0.697524 0.5
352 1 0.522574 0.745822 0.5
355 1 0.598244 0.696542 0.5
354 1 0.570881 0.748307 0.5
356 1 0.621831 0.745446 0.5
357 1 0.64945 0.695706 0.5
358 1 0.672729 0.74509 0.5
359 1 0.701001 0.696154 0.5
361 1 0.751233 0.697914 0.5
360 1 0.723562 0.744468 0.5
363 1 0.800821 0.697075 0.5
362 1 0.774054 0.745544 0.5
365 1 0.850261 0.698241 0.5
364 1 0.825696 0.746036 0.5
367 1 0.897925 0.6991 0.5
366 1 0.876341 0.747261 0.5
368 1 0.926536 0.747119 0.5
369 1 0.949617 0.698403 0.5
370 1 0.974453 0.747099 0.5
420 1 0.948582 0.997385 0.5
373 1 0.547496 0.796389 0.5
375 1 0.598361 0.795442 0.5
377 1 0.648834 0.79591 0.5
379 1 0.700215 0.79582 0.5
381 1 0.749844 0.791535 0.5
383 1 0.798816 0.79328 0.5
385 1 0.850758 0.795926 0.5
387 1 0.901438 0.798435 0.5
389 1 0.952015 0.798207 0.5
410 1 0.971958 0.946274 0.5
372 1 0.525979 0.845175 0.5
393 1 0.549764 0.893393 0.5
374 1 0.574865 0.843656 0.5
395 1 0.599318 0.898916 0.5
376 1 0.623984 0.842291 0.5
378 1 0.67439 0.843586 0.5
397 1 0.649044 0.891641 0.5
380 1 0.727321 0.842079 0.5
399 1 0.701819 0.88985 0.5
401 1 0.750905 0.891667 0.5
382 1 0.775481 0.843098 0.5
403 1 0.798214 0.895168 0.5
384 1 0.822382 0.845173 0.5
386 1 0.874155 0.846853 0.5
405 1 0.846922 0.894437 0.5
388 1 0.923688 0.848928 0.5
407 1 0.896168 0.896629 0.5
390 1 0.972475 0.848225 0.5
409 1 0.948784 0.896381 0.5
406 1 0.874337 0.947727 0.5
392 1 0.520888 0.943979 0.5
412 1 0.54918 0.991592 0.5
161 1 1.00137 0.799641 0.5
396 1 0.626278 0.944012 0.5
394 1 0.572189 0.942486 0.5
413 1 0.602805 0.994892 0.5
398 1 0.67563 0.940929 0.5
414 1 0.65135 0.99272 0.5
415 1 0.697447 0.988752 0.5
416 1 0.746454 0.989935 0.5
400 1 0.723646 0.939843 0.5
402 1 0.771905 0.940753 0.5
417 1 0.795609 0.990841 0.5
418 1 0.844996 0.997744 0.5
404 1 0.82221 0.94373 0.5
408 1 0.923454 0.945364 0.5
181 1 0.998628 0.89658 0.5
121 1 0.999909 0.596049 0.5
331 1 0.500635 0.597956 0.5
351 1 0.499897 0.695094 0.5
