ITEM: TIMESTEP
8500
ITEM: NUMBER OF ATOMS
420
ITEM: BOX BOUNDS pp ss pp
0.0000000000000000e+00 2.2653923264628304e+01
-1.9618873042551413e-03 1.9404264801904642e+01
-2.8317404080785380e-01 2.8317404080785380e-01
ITEM: ATOMS id type xs ys zs
1 2 0 0.000101096 0.5
2 2 0.025 0.050649 0.5
3 2 0.05 0.000101096 0.5
4 2 0.075 0.050649 0.5
5 2 0.1 0.000101096 0.5
6 2 0.125 0.050649 0.5
7 2 0.15 0.000101096 0.5
8 2 0.175 0.050649 0.5
9 2 0.2 0.000101096 0.5
10 2 0.225 0.050649 0.5
11 2 0.25 0.000101096 0.5
12 2 0.275 0.050649 0.5
13 2 0.3 0.000101096 0.5
14 2 0.325 0.050649 0.5
15 2 0.35 0.000101096 0.5
16 2 0.375 0.050649 0.5
17 2 0.4 0.000101096 0.5
18 2 0.425 0.050649 0.5
19 2 0.45 0.000101096 0.5
20 2 0.475 0.050649 0.5
21 2 0 0.101197 0.5
23 2 0.05 0.101197 0.5
22 1 0.0265116 0.15002 0.5
25 2 0.1 0.101197 0.5
24 1 0.078336 0.153988 0.5
26 1 0.12422 0.147764 0.5
27 2 0.15 0.101197 0.5
28 1 0.175971 0.147418 0.5
29 2 0.2 0.101197 0.5
30 1 0.225892 0.150196 0.5
31 2 0.25 0.101197 0.5
33 2 0.3 0.101197 0.5
32 1 0.277009 0.148826 0.5
35 2 0.35 0.101197 0.5
34 1 0.324518 0.147885 0.5
37 2 0.4 0.101197 0.5
36 1 0.372962 0.150039 0.5
38 1 0.42638 0.151512 0.5
39 2 0.45 0.101197 0.5
40 1 0.477527 0.151 0.5
43 1 0.0507192 0.202152 0.5
103 1 0.0518103 0.49389 0.5
45 1 0.105951 0.198428 0.5
44 1 0.076568 0.247028 0.5
47 1 0.151274 0.199117 0.5
46 1 0.128882 0.248313 0.5
48 1 0.175777 0.250426 0.5
49 1 0.199903 0.197546 0.5
50 1 0.225396 0.248154 0.5
51 1 0.249259 0.197933 0.5
53 1 0.29926 0.197132 0.5
52 1 0.273462 0.245492 0.5
55 1 0.350382 0.199187 0.5
54 1 0.326941 0.246279 0.5
57 1 0.39893 0.197934 0.5
56 1 0.375567 0.247635 0.5
58 1 0.427269 0.247627 0.5
59 1 0.451408 0.198655 0.5
60 1 0.47948 0.250941 0.5
42 1 0.02603 0.250445 0.5
63 1 0.0517761 0.298308 0.5
65 1 0.102178 0.297159 0.5
67 1 0.151764 0.297426 0.5
69 1 0.203825 0.298264 0.5
71 1 0.251404 0.296001 0.5
73 1 0.301347 0.293962 0.5
75 1 0.352059 0.295488 0.5
77 1 0.400779 0.296606 0.5
79 1 0.453558 0.298818 0.5
119 1 0.44981 0.494004 0.5
62 1 0.0267373 0.344867 0.5
83 1 0.0515032 0.395579 0.5
81 1 0.00115731 0.394618 0.5
64 1 0.0771548 0.347878 0.5
85 1 0.102289 0.397211 0.5
66 1 0.126635 0.348201 0.5
68 1 0.176731 0.344166 0.5
87 1 0.154813 0.396496 0.5
70 1 0.228764 0.346685 0.5
89 1 0.203458 0.395271 0.5
72 1 0.277316 0.348025 0.5
91 1 0.252699 0.397751 0.5
93 1 0.303261 0.395305 0.5
74 1 0.32614 0.343485 0.5
76 1 0.377663 0.343534 0.5
95 1 0.35366 0.394395 0.5
78 1 0.425881 0.34806 0.5
97 1 0.400406 0.396591 0.5
80 1 0.475996 0.349476 0.5
99 1 0.448756 0.396089 0.5
82 1 0.0286859 0.44384 0.5
98 1 0.425417 0.444265 0.5
100 1 0.476873 0.445845 0.5
94 1 0.327205 0.442657 0.5
84 1 0.0789468 0.444866 0.5
86 1 0.129442 0.444795 0.5
88 1 0.178791 0.448324 0.5
96 1 0.375624 0.445411 0.5
90 1 0.227186 0.445983 0.5
61 1 0.00197447 0.296985 0.5
117 1 0.398432 0.496654 0.5
113 1 0.29986 0.496293 0.5
92 1 0.27745 0.446298 0.5
101 1 0.00020724 0.48989 0.5
41 1 0.0025529 0.199096 0.5
111 1 0.249993 0.49471 0.5
115 1 0.347815 0.497107 0.5
107 1 0.149871 0.495485 0.5
105 1 0.100032 0.494596 0.5
102 1 0.025292 0.539124 0.5
104 1 0.0752138 0.542814 0.5
106 1 0.1239 0.543179 0.5
108 1 0.175814 0.54629 0.5
110 1 0.22524 0.548644 0.5
112 1 0.274483 0.546033 0.5
114 1 0.321963 0.544666 0.5
116 1 0.374062 0.542596 0.5
118 1 0.426178 0.544329 0.5
120 1 0.475598 0.545236 0.5
123 1 0.0494497 0.590696 0.5
122 1 0.0234886 0.640271 0.5
121 1 0.00214263 0.58958 0.5
125 1 0.0972529 0.591547 0.5
124 1 0.0710282 0.642009 0.5
127 1 0.146807 0.593681 0.5
126 1 0.121895 0.641321 0.5
128 1 0.173618 0.641501 0.5
129 1 0.20101 0.597623 0.5
130 1 0.227583 0.64747 0.5
131 1 0.250686 0.597097 0.5
133 1 0.301669 0.594246 0.5
132 1 0.274896 0.644628 0.5
135 1 0.349955 0.59091 0.5
134 1 0.324132 0.645044 0.5
136 1 0.37712 0.642469 0.5
137 1 0.39905 0.590829 0.5
138 1 0.42621 0.639769 0.5
139 1 0.450102 0.592665 0.5
140 1 0.475783 0.638486 0.5
143 1 0.0475871 0.689345 0.5
142 1 0.0245836 0.740175 0.5
196 1 0.377074 0.934933 0.5
145 1 0.09511 0.694278 0.5
144 1 0.074113 0.742917 0.5
147 1 0.146209 0.69179 0.5
146 1 0.124278 0.740215 0.5
148 1 0.174625 0.742446 0.5
149 1 0.198712 0.692523 0.5
150 1 0.222879 0.742253 0.5
151 1 0.251582 0.695151 0.5
153 1 0.302497 0.691883 0.5
152 1 0.275973 0.740482 0.5
155 1 0.352191 0.69247 0.5
154 1 0.325782 0.740162 0.5
157 1 0.401881 0.691122 0.5
156 1 0.376759 0.739691 0.5
158 1 0.426217 0.740482 0.5
159 1 0.450351 0.686222 0.5
160 1 0.474487 0.736839 0.5
200 1 0.478948 0.929441 0.5
163 1 0.0494364 0.789706 0.5
165 1 0.0993178 0.790503 0.5
167 1 0.148373 0.789164 0.5
169 1 0.20014 0.790861 0.5
171 1 0.25037 0.790066 0.5
173 1 0.300776 0.788788 0.5
175 1 0.351782 0.79061 0.5
177 1 0.403232 0.787757 0.5
179 1 0.454022 0.785936 0.5
180 1 0.478914 0.834919 0.5
201 1 0.000799374 0.991057 0.5
162 1 0.0265295 0.838421 0.5
183 1 0.0513705 0.890912 0.5
181 1 0.00174792 0.889201 0.5
164 1 0.0749625 0.839175 0.5
185 1 0.101682 0.887977 0.5
166 1 0.125511 0.838501 0.5
168 1 0.174768 0.839097 0.5
187 1 0.149609 0.890323 0.5
170 1 0.224368 0.840562 0.5
189 1 0.201155 0.890589 0.5
191 1 0.249554 0.889289 0.5
172 1 0.277252 0.838606 0.5
193 1 0.299588 0.892083 0.5
174 1 0.325706 0.841317 0.5
176 1 0.374264 0.838881 0.5
195 1 0.350805 0.888557 0.5
178 1 0.427994 0.835576 0.5
197 1 0.400105 0.884413 0.5
199 1 0.452314 0.883343 0.5
182 1 0.0248436 0.940152 0.5
202 1 0.0497762 0.986254 0.5
210 1 0.45097 0.980297 0.5
184 1 0.0768215 0.938202 0.5
203 1 0.100878 0.99183 0.5
186 1 0.126509 0.94334 0.5
204 1 0.149155 0.992185 0.5
188 1 0.178202 0.939244 0.5
205 1 0.199723 0.996157 0.5
190 1 0.225996 0.942354 0.5
206 1 0.248867 0.993721 0.5
207 1 0.297721 0.992866 0.5
192 1 0.275594 0.940436 0.5
194 1 0.327001 0.937153 0.5
208 1 0.352635 0.98672 0.5
209 1 0.403921 0.980319 0.5
198 1 0.425636 0.931741 0.5
411 1 0.499508 0.976082 0.5
161 1 0.00295369 0.788759 0.5
109 1 0.200275 0.499702 0.5
211 2 0.5 0.000101096 0.5
212 2 0.525 0.050649 0.5
213 2 0.55 0.000101096 0.5
214 2 0.575 0.050649 0.5
215 2 0.6 0.000101096 0.5
216 2 0.625 0.050649 0.5
217 2 0.65 0.000101096 0.5
218 2 0.675 0.050649 0.5
219 2 0.7 0.000101096 0.5
220 2 0.725 0.050649 0.5
221 2 0.75 0.000101096 0.5
222 2 0.775 0.050649 0.5
223 2 0.8 0.000101096 0.5
224 2 0.825 0.050649 0.5
225 2 0.85 0.000101096 0.5
226 2 0.875 0.050649 0.5
227 2 0.9 0.000101096 0.5
228 2 0.925 0.050649 0.5
229 2 0.95 0.000101096 0.5
230 2 0.975 0.050649 0.5
231 2 0.5 0.101197 0.5
233 2 0.55 0.101197 0.5
232 1 0.527236 0.150706 0.5
235 2 0.6 0.101197 0.5
234 1 0.575756 0.149159 0.5
237 2 0.65 0.101197 0.5
236 1 0.624707 0.151244 0.5
238 1 0.672437 0.149061 0.5
239 2 0.7 0.101197 0.5
240 1 0.725158 0.147775 0.5
241 2 0.75 0.101197 0.5
243 2 0.8 0.101197 0.5
242 1 0.774524 0.149446 0.5
245 2 0.85 0.101197 0.5
244 1 0.824368 0.151561 0.5
246 1 0.874578 0.151285 0.5
247 2 0.9 0.101197 0.5
248 1 0.928529 0.152593 0.5
249 2 0.95 0.101197 0.5
250 1 0.978632 0.150937 0.5
253 1 0.551534 0.197366 0.5
252 1 0.527564 0.248778 0.5
310 1 0.975265 0.442863 0.5
255 1 0.601254 0.19929 0.5
254 1 0.576441 0.249383 0.5
256 1 0.624714 0.249746 0.5
257 1 0.649693 0.200491 0.5
258 1 0.677767 0.247067 0.5
259 1 0.699676 0.196153 0.5
261 1 0.749185 0.195916 0.5
263 1 0.799546 0.196915 0.5
262 1 0.773771 0.245077 0.5
265 1 0.85008 0.200207 0.5
266 1 0.875476 0.250096 0.5
264 1 0.824368 0.248334 0.5
267 1 0.902801 0.201289 0.5
268 1 0.927141 0.251744 0.5
269 1 0.95275 0.201339 0.5
273 1 0.551591 0.29799 0.5
275 1 0.603238 0.299851 0.5
277 1 0.654552 0.297222 0.5
260 1 0.725399 0.246986 0.5
279 1 0.703089 0.299683 0.5
281 1 0.751815 0.295848 0.5
283 1 0.800473 0.297527 0.5
285 1 0.853196 0.299409 0.5
287 1 0.901536 0.299586 0.5
270 1 0.976115 0.249378 0.5
289 1 0.950696 0.297458 0.5
327 1 0.899118 0.489625 0.5
272 1 0.524171 0.346399 0.5
293 1 0.549197 0.397602 0.5
329 1 0.950742 0.489599 0.5
274 1 0.574799 0.345948 0.5
295 1 0.600011 0.39484 0.5
276 1 0.628971 0.346002 0.5
278 1 0.677411 0.347173 0.5
297 1 0.65135 0.395023 0.5
280 1 0.726494 0.347314 0.5
299 1 0.700154 0.394954 0.5
282 1 0.777394 0.346631 0.5
301 1 0.751555 0.396307 0.5
303 1 0.800676 0.39535 0.5
284 1 0.826513 0.348792 0.5
305 1 0.848795 0.396188 0.5
286 1 0.875911 0.347998 0.5
288 1 0.923108 0.348244 0.5
307 1 0.897688 0.395005 0.5
290 1 0.97472 0.345299 0.5
309 1 0.951652 0.396263 0.5
292 1 0.525119 0.447527 0.5
313 1 0.552644 0.493373 0.5
311 1 0.50127 0.495467 0.5
294 1 0.573884 0.441975 0.5
315 1 0.603638 0.493536 0.5
296 1 0.624719 0.443028 0.5
298 1 0.67864 0.445021 0.5
317 1 0.651794 0.492258 0.5
300 1 0.726146 0.444024 0.5
319 1 0.701101 0.493292 0.5
321 1 0.749053 0.493189 0.5
302 1 0.77462 0.443382 0.5
323 1 0.798068 0.490635 0.5
325 1 0.850687 0.491109 0.5
304 1 0.824271 0.443981 0.5
308 1 0.923026 0.442088 0.5
306 1 0.87423 0.443957 0.5
271 1 0.504608 0.298305 0.5
251 1 0.501386 0.200608 0.5
291 1 0.501079 0.39784 0.5
312 1 0.525861 0.544885 0.5
314 1 0.575554 0.543671 0.5
316 1 0.62828 0.544148 0.5
318 1 0.678154 0.543442 0.5
320 1 0.726337 0.542901 0.5
322 1 0.776109 0.540507 0.5
324 1 0.826046 0.539363 0.5
326 1 0.877313 0.540413 0.5
328 1 0.927236 0.542149 0.5
330 1 0.977071 0.538841 0.5
333 1 0.551857 0.589899 0.5
332 1 0.525309 0.638839 0.5
331 1 0.500818 0.594491 0.5
335 1 0.601722 0.589921 0.5
334 1 0.576103 0.639912 0.5
336 1 0.626333 0.638935 0.5
337 1 0.65175 0.591436 0.5
338 1 0.679182 0.641338 0.5
339 1 0.701663 0.590981 0.5
340 1 0.726516 0.639377 0.5
341 1 0.751179 0.592003 0.5
343 1 0.799487 0.590975 0.5
342 1 0.775875 0.640179 0.5
345 1 0.850868 0.589469 0.5
344 1 0.82563 0.639113 0.5
347 1 0.899667 0.58987 0.5
346 1 0.874916 0.640147 0.5
348 1 0.926177 0.642834 0.5
349 1 0.95062 0.591479 0.5
350 1 0.974408 0.639661 0.5
353 1 0.550856 0.687546 0.5
352 1 0.526733 0.734948 0.5
351 1 0.499963 0.687172 0.5
355 1 0.602429 0.687877 0.5
354 1 0.577423 0.734814 0.5
357 1 0.652345 0.685879 0.5
356 1 0.62983 0.737068 0.5
358 1 0.67835 0.732971 0.5
359 1 0.703494 0.686444 0.5
360 1 0.729213 0.737325 0.5
361 1 0.752108 0.687675 0.5
363 1 0.801908 0.687517 0.5
362 1 0.776183 0.737714 0.5
365 1 0.850654 0.686888 0.5
364 1 0.828087 0.736969 0.5
367 1 0.902008 0.68861 0.5
366 1 0.876962 0.736646 0.5
368 1 0.92562 0.739468 0.5
369 1 0.952751 0.692685 0.5
370 1 0.97738 0.739235 0.5
373 1 0.554876 0.785034 0.5
372 1 0.532194 0.836039 0.5
375 1 0.604382 0.784364 0.5
374 1 0.58163 0.835681 0.5
377 1 0.655475 0.782481 0.5
379 1 0.704655 0.788358 0.5
381 1 0.752308 0.787595 0.5
383 1 0.803921 0.784744 0.5
385 1 0.852875 0.785299 0.5
387 1 0.903151 0.78756 0.5
389 1 0.952906 0.787974 0.5
393 1 0.555546 0.883924 0.5
420 1 0.95041 0.990891 0.5
395 1 0.606955 0.885364 0.5
376 1 0.631379 0.834873 0.5
378 1 0.679359 0.838645 0.5
397 1 0.653394 0.888143 0.5
380 1 0.726566 0.836314 0.5
399 1 0.702755 0.88863 0.5
382 1 0.777772 0.834559 0.5
401 1 0.753743 0.885312 0.5
403 1 0.803528 0.88677 0.5
384 1 0.827632 0.836696 0.5
405 1 0.852085 0.888399 0.5
386 1 0.877927 0.836692 0.5
388 1 0.927656 0.837495 0.5
407 1 0.903162 0.886157 0.5
390 1 0.976034 0.837744 0.5
409 1 0.950309 0.886481 0.5
392 1 0.527919 0.931448 0.5
412 1 0.547393 0.978908 0.5
410 1 0.973894 0.939472 0.5
394 1 0.578083 0.93749 0.5
413 1 0.600676 0.989604 0.5
396 1 0.630588 0.939687 0.5
398 1 0.681763 0.940197 0.5
414 1 0.653629 0.989616 0.5
415 1 0.70125 0.99958 0.5
400 1 0.728601 0.936218 0.5
416 1 0.751478 0.991047 0.5
417 1 0.80246 0.988258 0.5
402 1 0.777069 0.937272 0.5
418 1 0.851067 0.987384 0.5
404 1 0.827121 0.938635 0.5
406 1 0.877574 0.937205 0.5
419 1 0.900724 0.988993 0.5
408 1 0.926789 0.935207 0.5
371 1 0.504357 0.785946 0.5
391 1 0.502697 0.882801 0.5
141 1 0.999308 0.689837 0.5
