ITEM: TIMESTEP
24000
ITEM: NUMBER OF ATOMS
420
ITEM: BOX BOUNDS pp ss pp
0.0000000000000000e+00 2.2653923264628304e+01
-1.9618873042551413e-03 2.0887939928469734e+01
-2.8317404080785380e-01 2.8317404080785380e-01
ITEM: ATOMS id type xs ys zs
1 2 0 9.39156e-05 0.5
2 2 0.025 0.0470517 0.5
3 2 0.05 9.39156e-05 0.5
4 2 0.075 0.0470517 0.5
5 2 0.1 9.39156e-05 0.5
6 2 0.125 0.0470517 0.5
7 2 0.15 9.39156e-05 0.5
8 2 0.175 0.0470517 0.5
9 2 0.2 9.39156e-05 0.5
10 2 0.225 0.0470517 0.5
11 2 0.25 9.39156e-05 0.5
12 2 0.275 0.0470517 0.5
13 2 0.3 9.39156e-05 0.5
14 2 0.325 0.0470517 0.5
15 2 0.35 9.39156e-05 0.5
16 2 0.375 0.0470517 0.5
17 2 0.4 9.39156e-05 0.5
18 2 0.425 0.0470517 0.5
19 2 0.45 9.39156e-05 0.5
20 2 0.475 0.0470517 0.5
21 2 0 0.0940095 0.5
23 2 0.05 0.0940095 0.5
22 1 0.0249653 0.138061 0.5
25 2 0.1 0.0940095 0.5
24 1 0.0735717 0.13958 0.5
26 1 0.126969 0.139034 0.5
27 2 0.15 0.0940095 0.5
28 1 0.17404 0.139368 0.5
29 2 0.2 0.0940095 0.5
30 1 0.225029 0.139232 0.5
31 2 0.25 0.0940095 0.5
33 2 0.3 0.0940095 0.5
32 1 0.274023 0.137983 0.5
35 2 0.35 0.0940095 0.5
34 1 0.323543 0.140267 0.5
36 1 0.376177 0.140325 0.5
37 2 0.4 0.0940095 0.5
38 1 0.427338 0.139793 0.5
39 2 0.45 0.0940095 0.5
40 1 0.477504 0.139939 0.5
43 1 0.0490981 0.184171 0.5
45 1 0.0962341 0.187218 0.5
47 1 0.147374 0.185555 0.5
49 1 0.19808 0.185539 0.5
51 1 0.246013 0.185768 0.5
53 1 0.295053 0.182645 0.5
55 1 0.350374 0.183501 0.5
57 1 0.402509 0.186345 0.5
59 1 0.45284 0.186089 0.5
271 1 0.494152 0.281451 0.5
42 1 0.0238172 0.232527 0.5
63 1 0.0495666 0.276761 0.5
44 1 0.0733993 0.232997 0.5
65 1 0.0998335 0.279266 0.5
46 1 0.121162 0.231006 0.5
48 1 0.171268 0.230095 0.5
67 1 0.148941 0.276711 0.5
50 1 0.219648 0.230877 0.5
69 1 0.195507 0.274338 0.5
71 1 0.24594 0.272256 0.5
52 1 0.273112 0.228523 0.5
73 1 0.296993 0.271731 0.5
54 1 0.324324 0.224809 0.5
56 1 0.372494 0.230744 0.5
75 1 0.343953 0.272482 0.5
58 1 0.422072 0.232248 0.5
77 1 0.395325 0.276861 0.5
60 1 0.473075 0.23372 0.5
79 1 0.445985 0.278888 0.5
119 1 0.430742 0.461526 0.5
62 1 0.0262566 0.32429 0.5
64 1 0.0724218 0.324976 0.5
66 1 0.122854 0.327279 0.5
68 1 0.169953 0.323505 0.5
70 1 0.219282 0.316161 0.5
72 1 0.26791 0.317434 0.5
74 1 0.317653 0.318682 0.5
76 1 0.367359 0.316982 0.5
78 1 0.417042 0.321702 0.5
80 1 0.469588 0.32398 0.5
83 1 0.0461365 0.37199 0.5
82 1 0.0222257 0.415681 0.5
85 1 0.0949135 0.371835 0.5
86 1 0.121421 0.421386 0.5
84 1 0.0701605 0.417341 0.5
87 1 0.143035 0.375626 0.5
88 1 0.169461 0.418691 0.5
91 1 0.240083 0.360716 0.5
89 1 0.191957 0.37146 0.5
90 1 0.220146 0.424619 0.5
93 1 0.291083 0.360978 0.5
92 1 0.263718 0.404681 0.5
94 1 0.31232 0.404806 0.5
95 1 0.341305 0.363724 0.5
96 1 0.360547 0.409262 0.5
97 1 0.39 0.365221 0.5
98 1 0.411702 0.412079 0.5
99 1 0.440279 0.365276 0.5
100 1 0.459643 0.415768 0.5
291 1 0.488941 0.373141 0.5
103 1 0.0499422 0.464818 0.5
107 1 0.0985539 0.467887 0.5
109 1 0.144987 0.470071 0.5
111 1 0.195073 0.4699 0.5
112 1 0.243667 0.475856 0.5
113 1 0.284266 0.448645 0.5
114 1 0.300464 0.494545 0.5
115 1 0.332375 0.450565 0.5
311 1 0.4816 0.4623 0.5
117 1 0.383225 0.454927 0.5
61 1 -0.000178399 0.27687 0.5
116 1 0.350185 0.496841 0.5
251 1 0.499115 0.19011 0.5
102 1 0.021166 0.509769 0.5
104 1 0.0433451 0.559812 0.5
106 1 0.0911812 0.561626 0.5
105 1 0.0694098 0.513977 0.5
108 1 0.12235 0.514854 0.5
129 1 0.140056 0.566782 0.5
110 1 0.169484 0.516234 0.5
133 1 0.218807 0.521246 0.5
131 1 0.1872 0.566768 0.5
134 1 0.236026 0.572725 0.5
135 1 0.26459 0.529612 0.5
137 1 0.318769 0.540193 0.5
139 1 0.370412 0.543446 0.5
331 1 0.419854 0.5498 0.5
208 1 0.265044 0.999546 0.5
333 1 0.471718 0.554171 0.5
192 1 0.198858 0.951734 0.5
194 1 0.245584 0.950788 0.5
123 1 0.0181036 0.602989 0.5
125 1 0.065296 0.605621 0.5
127 1 0.111986 0.610595 0.5
130 1 0.161818 0.614202 0.5
132 1 0.209448 0.617605 0.5
155 1 0.258414 0.623144 0.5
136 1 0.28637 0.582047 0.5
157 1 0.310471 0.629478 0.5
138 1 0.339813 0.585067 0.5
159 1 0.359591 0.632665 0.5
140 1 0.387065 0.590316 0.5
351 1 0.407533 0.635339 0.5
332 1 0.439503 0.595277 0.5
334 1 0.490165 0.599568 0.5
124 1 0.0395371 0.649392 0.5
143 1 0.0112526 0.696208 0.5
145 1 0.0592915 0.699221 0.5
126 1 0.085751 0.654786 0.5
147 1 0.106569 0.703622 0.5
128 1 0.134218 0.657588 0.5
149 1 0.154579 0.708493 0.5
151 1 0.182372 0.665362 0.5
152 1 0.204919 0.709901 0.5
153 1 0.229964 0.665447 0.5
154 1 0.253693 0.712833 0.5
156 1 0.2794 0.669975 0.5
158 1 0.329535 0.673631 0.5
160 1 0.378915 0.678766 0.5
352 1 0.428586 0.682614 0.5
353 1 0.458149 0.639587 0.5
373 1 0.476968 0.687536 0.5
209 1 0.291288 0.947674 0.5
144 1 0.0334418 0.742569 0.5
146 1 0.0789769 0.747489 0.5
148 1 0.128964 0.752874 0.5
150 1 0.178025 0.756705 0.5
173 1 0.225518 0.755665 0.5
175 1 0.272649 0.758654 0.5
177 1 0.302497 0.717761 0.5
179 1 0.351959 0.72108 0.5
178 1 0.324448 0.765531 0.5
180 1 0.373044 0.769376 0.5
371 1 0.40056 0.725735 0.5
391 1 0.421619 0.772512 0.5
163 1 0.00719618 0.788332 0.5
372 1 0.450196 0.730029 0.5
392 1 0.469046 0.774509 0.5
165 1 0.0520461 0.791611 0.5
164 1 0.0247347 0.83749 0.5
166 1 0.0714036 0.844467 0.5
167 1 0.100129 0.796658 0.5
168 1 0.118704 0.846738 0.5
169 1 0.149335 0.800696 0.5
170 1 0.168762 0.852208 0.5
171 1 0.199598 0.803094 0.5
172 1 0.218225 0.849468 0.5
174 1 0.245681 0.802118 0.5
176 1 0.294065 0.803013 0.5
199 1 0.343388 0.812079 0.5
200 1 0.394828 0.817993 0.5
411 1 0.442959 0.820417 0.5
412 1 0.493221 0.818565 0.5
185 1 0.0377918 0.889492 0.5
186 1 0.0559474 0.941753 0.5
120 1 0.451623 0.508343 0.5
187 1 0.0854818 0.89694 0.5
189 1 0.132239 0.901453 0.5
191 1 0.179129 0.901834 0.5
193 1 0.225683 0.901666 0.5
195 1 0.265918 0.849833 0.5
196 1 0.272109 0.900279 0.5
197 1 0.312861 0.853766 0.5
198 1 0.319751 0.905515 0.5
210 1 0.360965 0.861181 0.5
203 1 0.025652 0.983275 0.5
188 1 0.102896 0.948006 0.5
204 1 0.0763308 0.990643 0.5
205 1 0.124627 0.996434 0.5
190 1 0.150107 0.949445 0.5
206 1 0.171567 0.995919 0.5
207 1 0.218253 0.998666 0.5
118 1 0.401078 0.501914 0.5
184 1 0.00676615 0.934276 0.5
393 1 0.499192 0.732621 0.5
211 2 0.5 9.39156e-05 0.5
212 2 0.525 0.0470517 0.5
213 2 0.55 9.39156e-05 0.5
214 2 0.575 0.0470517 0.5
215 2 0.6 9.39156e-05 0.5
216 2 0.625 0.0470517 0.5
217 2 0.65 9.39156e-05 0.5
218 2 0.675 0.0470517 0.5
219 2 0.7 9.39156e-05 0.5
220 2 0.725 0.0470517 0.5
221 2 0.75 9.39156e-05 0.5
222 2 0.775 0.0470517 0.5
223 2 0.8 9.39156e-05 0.5
224 2 0.825 0.0470517 0.5
225 2 0.85 9.39156e-05 0.5
226 2 0.875 0.0470517 0.5
227 2 0.9 9.39156e-05 0.5
228 2 0.925 0.0470517 0.5
229 2 0.95 9.39156e-05 0.5
230 2 0.975 0.0470517 0.5
231 2 0.5 0.0940095 0.5
233 2 0.55 0.0940095 0.5
232 1 0.524672 0.142705 0.5
235 2 0.6 0.0940095 0.5
234 1 0.573447 0.138791 0.5
236 1 0.621672 0.140087 0.5
237 2 0.65 0.0940095 0.5
238 1 0.673296 0.138776 0.5
239 2 0.7 0.0940095 0.5
240 1 0.724815 0.138802 0.5
241 2 0.75 0.0940095 0.5
243 2 0.8 0.0940095 0.5
242 1 0.77247 0.139841 0.5
245 2 0.85 0.0940095 0.5
244 1 0.828074 0.142203 0.5
246 1 0.875324 0.139835 0.5
247 2 0.9 0.0940095 0.5
248 1 0.92497 0.139055 0.5
249 2 0.95 0.0940095 0.5
250 1 0.97476 0.140001 0.5
253 1 0.551998 0.188083 0.5
255 1 0.601047 0.187626 0.5
257 1 0.648988 0.188308 0.5
259 1 0.698086 0.184363 0.5
261 1 0.748707 0.183959 0.5
263 1 0.797817 0.187986 0.5
265 1 0.852125 0.185713 0.5
267 1 0.901498 0.185631 0.5
269 1 0.948218 0.185075 0.5
325 1 0.848636 0.462453 0.5
252 1 0.52216 0.236952 0.5
273 1 0.546761 0.282589 0.5
254 1 0.571772 0.234246 0.5
275 1 0.595567 0.283419 0.5
256 1 0.620405 0.235365 0.5
258 1 0.672108 0.236723 0.5
277 1 0.644677 0.281687 0.5
260 1 0.721888 0.230281 0.5
279 1 0.699959 0.27792 0.5
281 1 0.74929 0.275821 0.5
262 1 0.772602 0.230846 0.5
283 1 0.798992 0.273871 0.5
264 1 0.825593 0.229521 0.5
285 1 0.848035 0.276247 0.5
266 1 0.87394 0.230847 0.5
268 1 0.924301 0.230614 0.5
287 1 0.897857 0.276337 0.5
270 1 0.973604 0.230281 0.5
289 1 0.951085 0.277445 0.5
329 1 0.946664 0.465379 0.5
272 1 0.520078 0.326205 0.5
274 1 0.56976 0.332384 0.5
276 1 0.618299 0.332139 0.5
278 1 0.668801 0.331362 0.5
280 1 0.724557 0.322398 0.5
282 1 0.777021 0.321641 0.5
284 1 0.827792 0.323441 0.5
286 1 0.876516 0.322755 0.5
288 1 0.924694 0.320468 0.5
290 1 0.974814 0.322667 0.5
293 1 0.540931 0.373934 0.5
294 1 0.562409 0.421277 0.5
292 1 0.511308 0.419015 0.5
295 1 0.591152 0.376334 0.5
296 1 0.611362 0.425996 0.5
297 1 0.641942 0.379083 0.5
298 1 0.658337 0.430034 0.5
299 1 0.691452 0.379001 0.5
300 1 0.734355 0.410346 0.5
301 1 0.754155 0.365062 0.5
303 1 0.804467 0.367176 0.5
302 1 0.782155 0.412101 0.5
305 1 0.853394 0.370277 0.5
304 1 0.828341 0.416422 0.5
306 1 0.87677 0.41499 0.5
307 1 0.9016 0.36781 0.5
308 1 0.925689 0.415701 0.5
310 1 0.97372 0.417414 0.5
309 1 0.949902 0.367657 0.5
327 1 0.898605 0.462666 0.5
313 1 0.530796 0.46635 0.5
315 1 0.581661 0.471046 0.5
317 1 0.628519 0.477 0.5
318 1 0.67701 0.488859 0.5
319 1 0.70429 0.447827 0.5
321 1 0.754207 0.455667 0.5
320 1 0.727355 0.495677 0.5
323 1 0.801634 0.460913 0.5
41 1 0.997739 0.185741 0.5
101 1 0.997261 0.465209 0.5
81 1 0.996842 0.368925 0.5
314 1 0.549627 0.515537 0.5
335 1 0.520818 0.559526 0.5
336 1 0.570249 0.563161 0.5
316 1 0.599404 0.521729 0.5
357 1 0.619974 0.570698 0.5
337 1 0.64878 0.529736 0.5
339 1 0.698661 0.53704 0.5
341 1 0.745451 0.544462 0.5
343 1 0.797797 0.551628 0.5
322 1 0.773571 0.503587 0.5
345 1 0.84631 0.55717 0.5
326 1 0.87054 0.510788 0.5
324 1 0.823389 0.508925 0.5
347 1 0.894988 0.557917 0.5
328 1 0.92038 0.511636 0.5
349 1 0.942705 0.55598 0.5
330 1 0.970883 0.509384 0.5
121 1 0.991684 0.557863 0.5
355 1 0.538199 0.607129 0.5
356 1 0.586622 0.611872 0.5
338 1 0.667816 0.578376 0.5
359 1 0.688018 0.628493 0.5
358 1 0.63873 0.618715 0.5
340 1 0.71767 0.588795 0.5
361 1 0.736212 0.637982 0.5
342 1 0.770985 0.594249 0.5
344 1 0.817461 0.601921 0.5
346 1 0.868661 0.605236 0.5
348 1 0.918352 0.603493 0.5
350 1 0.968159 0.606488 0.5
122 1 0.990608 0.649036 0.5
374 1 0.527587 0.692685 0.5
375 1 0.558931 0.653413 0.5
377 1 0.607936 0.659225 0.5
376 1 0.577792 0.698793 0.5
378 1 0.627076 0.706744 0.5
379 1 0.657618 0.667332 0.5
380 1 0.675518 0.716639 0.5
360 1 0.708196 0.678081 0.5
362 1 0.756138 0.686428 0.5
363 1 0.787113 0.644898 0.5
364 1 0.805661 0.696174 0.5
365 1 0.839045 0.653972 0.5
367 1 0.887186 0.660708 0.5
366 1 0.851759 0.706386 0.5
369 1 0.937934 0.649252 0.5
368 1 0.897107 0.720572 0.5
141 1 0.962579 0.694506 0.5
395 1 0.548448 0.737613 0.5
394 1 0.519984 0.777236 0.5
397 1 0.598092 0.744999 0.5
399 1 0.643658 0.757752 0.5
401 1 0.694833 0.765083 0.5
381 1 0.725554 0.725106 0.5
382 1 0.740948 0.77598 0.5
383 1 0.772687 0.738309 0.5
384 1 0.787809 0.789333 0.5
385 1 0.819174 0.748868 0.5
387 1 0.868141 0.761865 0.5
370 1 0.939814 0.738311 0.5
389 1 0.911563 0.778483 0.5
202 1 0.978543 0.976149 0.5
142 1 0.986133 0.738201 0.5
161 1 0.958188 0.784633 0.5
413 1 0.54272 0.820769 0.5
396 1 0.569643 0.782387 0.5
414 1 0.613496 0.801135 0.5
398 1 0.662394 0.80693 0.5
415 1 0.672223 0.857477 0.5
400 1 0.708729 0.819034 0.5
403 1 0.757215 0.830156 0.5
405 1 0.802052 0.841836 0.5
386 1 0.834142 0.80178 0.5
407 1 0.848246 0.855338 0.5
388 1 0.879064 0.815301 0.5
409 1 0.896517 0.86546 0.5
390 1 0.930581 0.825485 0.5
162 1 0.977721 0.834464 0.5
416 1 0.686291 0.909016 0.5
402 1 0.72174 0.870177 0.5
417 1 0.735609 0.921893 0.5
404 1 0.767096 0.883319 0.5
406 1 0.817614 0.896876 0.5
408 1 0.863225 0.90902 0.5
410 1 0.911573 0.918914 0.5
181 1 0.945995 0.874837 0.5
183 1 0.99119 0.884066 0.5
182 1 0.959999 0.926704 0.5
418 1 0.784615 0.93529 0.5
420 1 0.880911 0.958005 0.5
419 1 0.830863 0.94885 0.5
201 1 0.932234 0.970899 0.5
354 1 0.506068 0.646606 0.5
312 1 0.502273 0.509693 0.5
