ITEM: TIMESTEP
30500
ITEM: NUMBER OF ATOMS
420
ITEM: BOX BOUNDS pp ss pp
0.0000000000000000e+00 2.2653923264628304e+01
-1.9618873042551413e-03 2.1521326328956931e+01
-2.8317404080785380e-01 2.8317404080785380e-01
ITEM: ATOMS id type xs ys zs
1 2 0 9.11518e-05 0.5
2 2 0.025 0.0456671 0.5
3 2 0.05 9.11518e-05 0.5
4 2 0.075 0.0456671 0.5
5 2 0.1 9.11518e-05 0.5
6 2 0.125 0.0456671 0.5
7 2 0.15 9.11518e-05 0.5
8 2 0.175 0.0456671 0.5
9 2 0.2 9.11518e-05 0.5
10 2 0.225 0.0456671 0.5
11 2 0.25 9.11518e-05 0.5
12 2 0.275 0.0456671 0.5
13 2 0.3 9.11518e-05 0.5
14 2 0.325 0.0456671 0.5
15 2 0.35 9.11518e-05 0.5
16 2 0.375 0.0456671 0.5
17 2 0.4 9.11518e-05 0.5
18 2 0.425 0.0456671 0.5
19 2 0.45 9.11518e-05 0.5
20 2 0.475 0.0456671 0.5
21 2 0 0.091243 0.5
23 2 0.05 0.091243 0.5
22 1 0.0235234 0.137435 0.5
25 2 0.1 0.091243 0.5
24 1 0.074783 0.134817 0.5
26 1 0.122137 0.133788 0.5
27 2 0.15 0.091243 0.5
28 1 0.173726 0.13687 0.5
29 2 0.2 0.091243 0.5
30 1 0.224519 0.13505 0.5
31 2 0.25 0.091243 0.5
33 2 0.3 0.091243 0.5
32 1 0.274506 0.136182 0.5
35 2 0.35 0.091243 0.5
34 1 0.323424 0.134589 0.5
36 1 0.373866 0.136934 0.5
37 2 0.4 0.091243 0.5
38 1 0.423463 0.136239 0.5
39 2 0.45 0.091243 0.5
40 1 0.47291 0.13431 0.5
43 1 0.0503594 0.178052 0.5
118 1 0.410535 0.496764 0.5
45 1 0.100372 0.17918 0.5
47 1 0.150817 0.178704 0.5
49 1 0.20156 0.178905 0.5
51 1 0.249351 0.180839 0.5
53 1 0.298309 0.181258 0.5
55 1 0.347304 0.179379 0.5
57 1 0.398952 0.182412 0.5
59 1 0.448628 0.178485 0.5
114 1 0.311928 0.492905 0.5
42 1 0.0248867 0.222293 0.5
63 1 0.0504956 0.268126 0.5
120 1 0.458549 0.497576 0.5
44 1 0.0739008 0.222451 0.5
65 1 0.0979652 0.264189 0.5
46 1 0.12561 0.221164 0.5
48 1 0.175553 0.222861 0.5
67 1 0.147487 0.266036 0.5
50 1 0.225491 0.224942 0.5
69 1 0.197967 0.267709 0.5
71 1 0.246969 0.270029 0.5
52 1 0.273862 0.226622 0.5
73 1 0.297039 0.269595 0.5
54 1 0.323289 0.2245 0.5
75 1 0.346341 0.268549 0.5
56 1 0.372391 0.225203 0.5
58 1 0.421379 0.226786 0.5
77 1 0.394009 0.270037 0.5
60 1 0.474422 0.22603 0.5
79 1 0.447834 0.269563 0.5
271 1 0.499241 0.271605 0.5
62 1 0.0214355 0.312871 0.5
83 1 0.0477332 0.353905 0.5
64 1 0.0738476 0.310266 0.5
66 1 0.122771 0.310643 0.5
68 1 0.171754 0.309403 0.5
70 1 0.219998 0.315271 0.5
72 1 0.269948 0.313706 0.5
74 1 0.319015 0.314902 0.5
76 1 0.369169 0.312501 0.5
78 1 0.41954 0.313931 0.5
80 1 0.471368 0.31519 0.5
82 1 0.0227353 0.39958 0.5
85 1 0.0974231 0.353538 0.5
86 1 0.121836 0.400572 0.5
84 1 0.0722169 0.396655 0.5
87 1 0.147321 0.354419 0.5
88 1 0.170475 0.400196 0.5
91 1 0.245374 0.355768 0.5
89 1 0.194592 0.355598 0.5
90 1 0.216111 0.40094 0.5
93 1 0.294376 0.357638 0.5
92 1 0.267647 0.400954 0.5
95 1 0.343184 0.361125 0.5
94 1 0.3168 0.406888 0.5
96 1 0.366602 0.404024 0.5
97 1 0.393526 0.357929 0.5
98 1 0.416754 0.405776 0.5
99 1 0.444738 0.360546 0.5
100 1 0.465447 0.408171 0.5
291 1 0.496534 0.359754 0.5
103 1 0.0480229 0.443041 0.5
311 1 0.486277 0.452761 0.5
105 1 0.0705356 0.487657 0.5
107 1 0.0936719 0.441538 0.5
108 1 0.117874 0.487124 0.5
110 1 0.169339 0.490187 0.5
109 1 0.14557 0.446347 0.5
111 1 0.193457 0.446527 0.5
112 1 0.241365 0.443286 0.5
133 1 0.216352 0.490694 0.5
113 1 0.28978 0.448642 0.5
135 1 0.263259 0.49221 0.5
115 1 0.340135 0.450332 0.5
116 1 0.35964 0.495227 0.5
119 1 0.436817 0.454046 0.5
117 1 0.388666 0.449674 0.5
251 1 0.49951 0.180229 0.5
104 1 0.0466917 0.55779 0.5
106 1 0.0862061 0.531875 0.5
129 1 0.135251 0.535389 0.5
131 1 0.186965 0.537354 0.5
134 1 0.236524 0.539423 0.5
136 1 0.284913 0.53811 0.5
208 1 0.262228 0.958936 0.5
137 1 0.335575 0.537366 0.5
139 1 0.384213 0.537259 0.5
331 1 0.433251 0.542849 0.5
192 1 0.214101 0.952599 0.5
333 1 0.482489 0.545885 0.5
123 1 0.0197996 0.601216 0.5
127 1 0.104047 0.577666 0.5
125 1 0.0711709 0.610972 0.5
128 1 0.125917 0.620492 0.5
130 1 0.153979 0.582237 0.5
151 1 0.177211 0.626301 0.5
132 1 0.206607 0.583183 0.5
153 1 0.227203 0.632456 0.5
155 1 0.258344 0.584528 0.5
157 1 0.304778 0.581395 0.5
156 1 0.275909 0.634119 0.5
138 1 0.354682 0.581324 0.5
158 1 0.323061 0.625575 0.5
159 1 0.374704 0.62849 0.5
140 1 0.403662 0.584428 0.5
351 1 0.424419 0.631503 0.5
332 1 0.453059 0.587886 0.5
353 1 0.472605 0.636968 0.5
124 1 0.0383013 0.649393 0.5
143 1 0.0120239 0.693315 0.5
145 1 0.061709 0.697053 0.5
126 1 0.0941946 0.659215 0.5
147 1 0.112891 0.706683 0.5
149 1 0.145587 0.666167 0.5
152 1 0.195814 0.676218 0.5
154 1 0.24499 0.679664 0.5
177 1 0.292816 0.683866 0.5
179 1 0.339371 0.671108 0.5
160 1 0.390816 0.677665 0.5
352 1 0.446201 0.683172 0.5
207 1 0.232489 1.00088 0.5
144 1 0.0355174 0.738963 0.5
163 1 0.00852422 0.781202 0.5
146 1 0.0828344 0.747481 0.5
148 1 0.132875 0.753452 0.5
150 1 0.16258 0.714594 0.5
171 1 0.180924 0.762467 0.5
173 1 0.211944 0.72176 0.5
174 1 0.228466 0.769942 0.5
175 1 0.260234 0.728861 0.5
176 1 0.280102 0.774893 0.5
178 1 0.308797 0.731778 0.5
180 1 0.355504 0.716675 0.5
199 1 0.338115 0.780153 0.5
371 1 0.415353 0.722547 0.5
391 1 0.381613 0.761828 0.5
411 1 0.433423 0.770744 0.5
372 1 0.465168 0.728334 0.5
392 1 0.482796 0.777345 0.5
165 1 0.0573017 0.790847 0.5
164 1 0.0269434 0.83117 0.5
167 1 0.104942 0.797733 0.5
166 1 0.0753093 0.841774 0.5
168 1 0.124739 0.846672 0.5
169 1 0.151059 0.80339 0.5
170 1 0.172413 0.854752 0.5
172 1 0.199515 0.812764 0.5
195 1 0.249255 0.819441 0.5
197 1 0.298201 0.822318 0.5
200 1 0.395778 0.812262 0.5
210 1 0.346808 0.83303 0.5
185 1 0.0421791 0.879113 0.5
184 1 0.012513 0.918131 0.5
186 1 0.0605714 0.928096 0.5
187 1 0.0946013 0.888243 0.5
189 1 0.144379 0.896008 0.5
191 1 0.192152 0.90564 0.5
193 1 0.220434 0.860876 0.5
194 1 0.24043 0.91011 0.5
209 1 0.288596 0.916901 0.5
196 1 0.269266 0.868472 0.5
198 1 0.317124 0.872326 0.5
203 1 0.0282774 0.964408 0.5
188 1 0.114399 0.933841 0.5
204 1 0.0809937 0.973765 0.5
205 1 0.131513 0.98554 0.5
206 1 0.183726 0.991021 0.5
190 1 0.162825 0.945725 0.5
102 1 0.0240566 0.509326 0.5
373 1 0.493337 0.68319 0.5
211 2 0.5 9.11518e-05 0.5
212 2 0.525 0.0456671 0.5
213 2 0.55 9.11518e-05 0.5
214 2 0.575 0.0456671 0.5
215 2 0.6 9.11518e-05 0.5
216 2 0.625 0.0456671 0.5
217 2 0.65 9.11518e-05 0.5
218 2 0.675 0.0456671 0.5
219 2 0.7 9.11518e-05 0.5
220 2 0.725 0.0456671 0.5
221 2 0.75 9.11518e-05 0.5
222 2 0.775 0.0456671 0.5
223 2 0.8 9.11518e-05 0.5
224 2 0.825 0.0456671 0.5
225 2 0.85 9.11518e-05 0.5
226 2 0.875 0.0456671 0.5
227 2 0.9 9.11518e-05 0.5
228 2 0.925 0.0456671 0.5
229 2 0.95 9.11518e-05 0.5
230 2 0.975 0.0456671 0.5
231 2 0.5 0.091243 0.5
233 2 0.55 0.091243 0.5
232 1 0.524492 0.134825 0.5
235 2 0.6 0.091243 0.5
234 1 0.5748 0.137098 0.5
236 1 0.624275 0.136722 0.5
237 2 0.65 0.091243 0.5
238 1 0.676515 0.135278 0.5
239 2 0.7 0.091243 0.5
240 1 0.724838 0.136018 0.5
241 2 0.75 0.091243 0.5
243 2 0.8 0.091243 0.5
242 1 0.773855 0.13465 0.5
245 2 0.85 0.091243 0.5
244 1 0.824338 0.135674 0.5
246 1 0.874711 0.135096 0.5
247 2 0.9 0.091243 0.5
248 1 0.926795 0.133192 0.5
249 2 0.95 0.091243 0.5
250 1 0.975397 0.134324 0.5
253 1 0.548819 0.181011 0.5
255 1 0.59916 0.1818 0.5
257 1 0.650615 0.181262 0.5
259 1 0.698053 0.180149 0.5
261 1 0.749642 0.182492 0.5
263 1 0.797994 0.178886 0.5
265 1 0.849342 0.179544 0.5
267 1 0.89926 0.179417 0.5
269 1 0.947478 0.175942 0.5
252 1 0.523623 0.224045 0.5
273 1 0.547207 0.269314 0.5
254 1 0.57431 0.224543 0.5
275 1 0.595313 0.273625 0.5
256 1 0.623358 0.227258 0.5
258 1 0.67256 0.229049 0.5
277 1 0.647606 0.273211 0.5
260 1 0.723191 0.227572 0.5
279 1 0.6957 0.275522 0.5
281 1 0.749226 0.270383 0.5
262 1 0.774066 0.225551 0.5
283 1 0.799452 0.270547 0.5
264 1 0.823504 0.224292 0.5
285 1 0.847303 0.268036 0.5
266 1 0.872802 0.221208 0.5
268 1 0.924446 0.219767 0.5
287 1 0.898844 0.264378 0.5
270 1 0.974361 0.223863 0.5
289 1 0.94928 0.266654 0.5
272 1 0.526278 0.316077 0.5
274 1 0.572752 0.317193 0.5
276 1 0.621111 0.318546 0.5
278 1 0.672026 0.319323 0.5
280 1 0.724378 0.314218 0.5
282 1 0.776009 0.312885 0.5
301 1 0.754175 0.355158 0.5
303 1 0.803304 0.357001 0.5
284 1 0.825351 0.314028 0.5
305 1 0.854325 0.358494 0.5
286 1 0.875012 0.312785 0.5
288 1 0.922443 0.31114 0.5
307 1 0.901287 0.360174 0.5
290 1 0.973518 0.312003 0.5
309 1 0.94864 0.356943 0.5
81 1 0.998985 0.357367 0.5
293 1 0.543889 0.36502 0.5
292 1 0.512185 0.408229 0.5
294 1 0.56278 0.411793 0.5
295 1 0.594462 0.364052 0.5
296 1 0.613729 0.411611 0.5
297 1 0.641903 0.365887 0.5
298 1 0.661962 0.416944 0.5
299 1 0.690368 0.368361 0.5
300 1 0.731734 0.397132 0.5
319 1 0.706357 0.436684 0.5
302 1 0.780003 0.399697 0.5
304 1 0.828616 0.40123 0.5
306 1 0.877292 0.403951 0.5
308 1 0.924931 0.402237 0.5
310 1 0.973349 0.403698 0.5
313 1 0.535707 0.455499 0.5
312 1 0.51017 0.500381 0.5
315 1 0.587079 0.458088 0.5
317 1 0.635979 0.464529 0.5
318 1 0.682308 0.479132 0.5
320 1 0.729153 0.483354 0.5
321 1 0.75395 0.441939 0.5
323 1 0.803926 0.44443 0.5
322 1 0.778791 0.488239 0.5
324 1 0.825286 0.490662 0.5
325 1 0.852202 0.447347 0.5
328 1 0.924458 0.496606 0.5
326 1 0.873735 0.492994 0.5
327 1 0.902311 0.450047 0.5
329 1 0.951756 0.450647 0.5
330 1 0.976644 0.49688 0.5
61 1 0.998156 0.269402 0.5
41 1 0.995245 0.18002 0.5
101 1 0.999172 0.448889 0.5
335 1 0.530979 0.545924 0.5
202 1 0.980087 0.956647 0.5
336 1 0.578591 0.553769 0.5
316 1 0.607142 0.506989 0.5
357 1 0.625205 0.561778 0.5
337 1 0.652846 0.520013 0.5
338 1 0.672369 0.568028 0.5
339 1 0.700395 0.524659 0.5
341 1 0.750627 0.529678 0.5
340 1 0.72315 0.569142 0.5
343 1 0.79868 0.534466 0.5
342 1 0.771037 0.576011 0.5
345 1 0.849319 0.53767 0.5
347 1 0.896995 0.53972 0.5
349 1 0.94543 0.546387 0.5
121 1 0.995657 0.550683 0.5
420 1 0.879834 0.953704 0.5
355 1 0.547712 0.59447 0.5
354 1 0.520434 0.635208 0.5
356 1 0.597062 0.601877 0.5
375 1 0.567432 0.641947 0.5
377 1 0.615604 0.648941 0.5
358 1 0.64457 0.60943 0.5
359 1 0.692981 0.61386 0.5
361 1 0.742043 0.618059 0.5
363 1 0.793259 0.621744 0.5
344 1 0.820981 0.57964 0.5
365 1 0.841707 0.624674 0.5
346 1 0.869692 0.584725 0.5
348 1 0.917041 0.590757 0.5
367 1 0.8926 0.6343 0.5
350 1 0.968142 0.597157 0.5
369 1 0.940921 0.638344 0.5
122 1 0.989309 0.642459 0.5
374 1 0.540962 0.685951 0.5
376 1 0.588876 0.691664 0.5
378 1 0.638642 0.697037 0.5
379 1 0.664208 0.654894 0.5
380 1 0.688524 0.703211 0.5
360 1 0.713248 0.660687 0.5
381 1 0.738603 0.70857 0.5
362 1 0.764355 0.663654 0.5
383 1 0.785871 0.710245 0.5
364 1 0.811645 0.667457 0.5
366 1 0.862236 0.673084 0.5
385 1 0.834751 0.716018 0.5
368 1 0.912955 0.681373 0.5
141 1 0.963732 0.687306 0.5
412 1 0.531568 0.779536 0.5
393 1 0.513022 0.730736 0.5
394 1 0.561792 0.737598 0.5
413 1 0.580472 0.785041 0.5
395 1 0.608892 0.741496 0.5
397 1 0.657561 0.746076 0.5
399 1 0.676987 0.791618 0.5
396 1 0.628766 0.790105 0.5
401 1 0.708218 0.748098 0.5
382 1 0.757502 0.756099 0.5
384 1 0.807346 0.75864 0.5
386 1 0.853236 0.764636 0.5
387 1 0.881793 0.723986 0.5
389 1 0.899892 0.771901 0.5
370 1 0.929349 0.728459 0.5
142 1 0.982282 0.737523 0.5
161 1 0.953646 0.777378 0.5
414 1 0.651541 0.837043 0.5
398 1 0.69794 0.837445 0.5
400 1 0.725193 0.796443 0.5
402 1 0.744714 0.844512 0.5
403 1 0.776028 0.802194 0.5
404 1 0.793796 0.849849 0.5
405 1 0.823709 0.807681 0.5
407 1 0.843811 0.856931 0.5
388 1 0.872623 0.811893 0.5
390 1 0.924903 0.817791 0.5
162 1 0.975875 0.822377 0.5
415 1 0.709907 0.886604 0.5
416 1 0.731993 0.937406 0.5
417 1 0.76243 0.891459 0.5
406 1 0.814733 0.89761 0.5
408 1 0.86338 0.905206 0.5
409 1 0.893093 0.857608 0.5
410 1 0.912422 0.904266 0.5
181 1 0.941867 0.863789 0.5
182 1 0.961693 0.911145 0.5
183 1 0.992775 0.871309 0.5
418 1 0.782068 0.93879 0.5
419 1 0.832232 0.945944 0.5
201 1 0.92857 0.951212 0.5
314 1 0.558276 0.504196 0.5
334 1 0.500619 0.589474 0.5
