ITEM: TIMESTEP
9000
ITEM: NUMBER OF ATOMS
420
ITEM: BOX BOUNDS pp ss pp
0.0000000000000000e+00 2.2653923264628304e+01
-1.9618873042551413e-03 1.9431629336659700e+01
-2.8317404080785380e-01 2.8317404080785380e-01
ITEM: ATOMS id type xs ys zs
1 2 0 0.000100953 0.5
2 2 0.025 0.0505777 0.5
3 2 0.05 0.000100953 0.5
4 2 0.075 0.0505777 0.5
5 2 0.1 0.000100953 0.5
6 2 0.125 0.0505777 0.5
7 2 0.15 0.000100953 0.5
8 2 0.175 0.0505777 0.5
9 2 0.2 0.000100953 0.5
10 2 0.225 0.0505777 0.5
11 2 0.25 0.000100953 0.5
12 2 0.275 0.0505777 0.5
13 2 0.3 0.000100953 0.5
14 2 0.325 0.0505777 0.5
15 2 0.35 0.000100953 0.5
16 2 0.375 0.0505777 0.5
17 2 0.4 0.000100953 0.5
18 2 0.425 0.0505777 0.5
19 2 0.45 0.000100953 0.5
20 2 0.475 0.0505777 0.5
21 2 0 0.101054 0.5
23 2 0.05 0.101054 0.5
22 1 0.0228101 0.15041 0.5
25 2 0.1 0.101054 0.5
24 1 0.0723254 0.152363 0.5
26 1 0.12463 0.149333 0.5
27 2 0.15 0.101054 0.5
28 1 0.172609 0.150226 0.5
29 2 0.2 0.101054 0.5
30 1 0.22483 0.152503 0.5
31 2 0.25 0.101054 0.5
33 2 0.3 0.101054 0.5
32 1 0.274233 0.149084 0.5
35 2 0.35 0.101054 0.5
34 1 0.324893 0.150826 0.5
37 2 0.4 0.101054 0.5
36 1 0.37486 0.151399 0.5
38 1 0.425097 0.149276 0.5
39 2 0.45 0.101054 0.5
40 1 0.474451 0.150791 0.5
43 1 0.0490894 0.201423 0.5
103 1 0.0480953 0.499994 0.5
45 1 0.0979976 0.198007 0.5
44 1 0.0707063 0.248927 0.5
47 1 0.147156 0.202701 0.5
46 1 0.119418 0.251375 0.5
48 1 0.174832 0.246523 0.5
49 1 0.199124 0.19916 0.5
50 1 0.224416 0.247762 0.5
51 1 0.251412 0.198996 0.5
53 1 0.300096 0.198667 0.5
52 1 0.27457 0.248319 0.5
55 1 0.34805 0.198461 0.5
54 1 0.322605 0.247334 0.5
57 1 0.399955 0.2012 0.5
56 1 0.373552 0.248495 0.5
58 1 0.425391 0.25114 0.5
59 1 0.450341 0.200328 0.5
60 1 0.47344 0.248967 0.5
42 1 0.0215166 0.252351 0.5
63 1 0.0452635 0.300934 0.5
65 1 0.0959742 0.300357 0.5
67 1 0.148877 0.295388 0.5
69 1 0.197057 0.295373 0.5
71 1 0.248442 0.296173 0.5
73 1 0.297296 0.297783 0.5
75 1 0.348038 0.296205 0.5
77 1 0.398917 0.298499 0.5
79 1 0.448253 0.298063 0.5
271 1 0.499308 0.297856 0.5
62 1 0.0200848 0.350255 0.5
83 1 0.0460488 0.39887 0.5
113 1 0.299465 0.489937 0.5
64 1 0.0723838 0.350214 0.5
85 1 0.0967524 0.399288 0.5
66 1 0.12485 0.346994 0.5
68 1 0.172956 0.345753 0.5
87 1 0.147696 0.396616 0.5
70 1 0.222283 0.344574 0.5
89 1 0.200084 0.394269 0.5
72 1 0.271631 0.345401 0.5
91 1 0.248035 0.397578 0.5
93 1 0.297598 0.393986 0.5
74 1 0.325013 0.346541 0.5
76 1 0.37461 0.346799 0.5
95 1 0.351738 0.393207 0.5
78 1 0.423952 0.346662 0.5
97 1 0.401163 0.394134 0.5
80 1 0.474262 0.345786 0.5
99 1 0.452216 0.396122 0.5
82 1 0.0204628 0.446254 0.5
98 1 0.424949 0.442603 0.5
100 1 0.474657 0.443693 0.5
94 1 0.326457 0.442639 0.5
84 1 0.0708795 0.450081 0.5
86 1 0.12408 0.444937 0.5
88 1 0.171465 0.445674 0.5
96 1 0.37333 0.442333 0.5
90 1 0.22285 0.446929 0.5
111 1 0.247277 0.493153 0.5
117 1 0.399847 0.491591 0.5
109 1 0.197265 0.496338 0.5
92 1 0.27309 0.444911 0.5
107 1 0.147818 0.496581 0.5
115 1 0.350681 0.494212 0.5
105 1 0.0979808 0.495709 0.5
251 1 0.499094 0.200622 0.5
119 1 0.450546 0.493678 0.5
101 1 -0.000678902 0.49714 0.5
102 1 0.0244208 0.548488 0.5
104 1 0.0737328 0.547014 0.5
106 1 0.124584 0.547677 0.5
108 1 0.175622 0.545479 0.5
110 1 0.223378 0.546349 0.5
112 1 0.272933 0.542741 0.5
114 1 0.323082 0.54159 0.5
116 1 0.375485 0.541554 0.5
118 1 0.423259 0.540941 0.5
120 1 0.475897 0.542835 0.5
123 1 0.0507011 0.597337 0.5
122 1 0.0219019 0.64509 0.5
198 1 0.422931 0.929304 0.5
125 1 0.098231 0.597111 0.5
124 1 0.07436 0.64658 0.5
127 1 0.148597 0.595223 0.5
126 1 0.123987 0.644898 0.5
128 1 0.174041 0.64318 0.5
129 1 0.198719 0.595892 0.5
130 1 0.224127 0.640087 0.5
131 1 0.251183 0.593532 0.5
133 1 0.301477 0.590421 0.5
132 1 0.273196 0.641956 0.5
135 1 0.350787 0.591198 0.5
134 1 0.325217 0.63791 0.5
136 1 0.375178 0.640481 0.5
137 1 0.400022 0.590165 0.5
138 1 0.424825 0.64026 0.5
139 1 0.448607 0.591863 0.5
140 1 0.47486 0.642281 0.5
143 1 0.0482859 0.694283 0.5
142 1 0.027318 0.750122 0.5
196 1 0.374097 0.934376 0.5
145 1 0.0999808 0.693982 0.5
144 1 0.0731457 0.743167 0.5
147 1 0.15007 0.69404 0.5
146 1 0.125578 0.741377 0.5
148 1 0.175169 0.741312 0.5
149 1 0.198269 0.690495 0.5
150 1 0.223057 0.739573 0.5
151 1 0.249626 0.689128 0.5
153 1 0.29903 0.691305 0.5
152 1 0.275666 0.740331 0.5
155 1 0.345818 0.690636 0.5
154 1 0.324359 0.739948 0.5
157 1 0.396986 0.691205 0.5
156 1 0.373333 0.738676 0.5
158 1 0.423891 0.739359 0.5
159 1 0.449689 0.690198 0.5
160 1 0.476179 0.739908 0.5
200 1 0.47246 0.929022 0.5
163 1 0.0517059 0.797236 0.5
165 1 0.101729 0.791538 0.5
167 1 0.152218 0.791065 0.5
169 1 0.202395 0.78957 0.5
171 1 0.251683 0.788775 0.5
173 1 0.300216 0.790159 0.5
175 1 0.349645 0.789582 0.5
177 1 0.39857 0.786327 0.5
179 1 0.447885 0.785612 0.5
180 1 0.475301 0.833233 0.5
411 1 0.498752 0.971819 0.5
162 1 0.0290024 0.848418 0.5
183 1 0.0550677 0.893369 0.5
209 1 0.400166 0.982065 0.5
164 1 0.0776872 0.843768 0.5
185 1 0.105145 0.892167 0.5
166 1 0.127035 0.841227 0.5
168 1 0.178829 0.839282 0.5
187 1 0.153704 0.890075 0.5
170 1 0.227343 0.839736 0.5
189 1 0.202503 0.889724 0.5
191 1 0.252044 0.889194 0.5
172 1 0.276698 0.838848 0.5
193 1 0.302697 0.89147 0.5
174 1 0.322424 0.839169 0.5
176 1 0.372725 0.839215 0.5
195 1 0.348639 0.885735 0.5
178 1 0.423033 0.835108 0.5
197 1 0.398867 0.884541 0.5
199 1 0.44807 0.881585 0.5
182 1 0.0287458 0.947293 0.5
202 1 0.0530919 0.996283 0.5
210 1 0.44763 0.977959 0.5
184 1 0.0791261 0.942158 0.5
203 1 0.102223 0.99742 0.5
186 1 0.128539 0.9438 0.5
204 1 0.157331 0.990951 0.5
188 1 0.178406 0.939639 0.5
205 1 0.20533 0.984522 0.5
190 1 0.2266 0.935296 0.5
206 1 0.251181 0.987589 0.5
207 1 0.301145 0.98939 0.5
192 1 0.274302 0.938819 0.5
194 1 0.322646 0.939457 0.5
208 1 0.349858 0.985359 0.5
201 1 0.00364929 0.996884 0.5
181 1 0.00241087 0.89673 0.5
161 1 0.000144968 0.798275 0.5
211 2 0.5 0.000100953 0.5
212 2 0.525 0.0505777 0.5
213 2 0.55 0.000100953 0.5
214 2 0.575 0.0505777 0.5
215 2 0.6 0.000100953 0.5
216 2 0.625 0.0505777 0.5
217 2 0.65 0.000100953 0.5
218 2 0.675 0.0505777 0.5
219 2 0.7 0.000100953 0.5
220 2 0.725 0.0505777 0.5
221 2 0.75 0.000100953 0.5
222 2 0.775 0.0505777 0.5
223 2 0.8 0.000100953 0.5
224 2 0.825 0.0505777 0.5
225 2 0.85 0.000100953 0.5
226 2 0.875 0.0505777 0.5
227 2 0.9 0.000100953 0.5
228 2 0.925 0.0505777 0.5
229 2 0.95 0.000100953 0.5
230 2 0.975 0.0505777 0.5
231 2 0.5 0.101054 0.5
233 2 0.55 0.101054 0.5
232 1 0.523481 0.151344 0.5
235 2 0.6 0.101054 0.5
234 1 0.572243 0.150963 0.5
237 2 0.65 0.101054 0.5
236 1 0.620314 0.150819 0.5
238 1 0.677236 0.152976 0.5
239 2 0.7 0.101054 0.5
240 1 0.726028 0.151134 0.5
241 2 0.75 0.101054 0.5
243 2 0.8 0.101054 0.5
242 1 0.774467 0.152574 0.5
245 2 0.85 0.101054 0.5
244 1 0.825921 0.150648 0.5
246 1 0.876154 0.152165 0.5
247 2 0.9 0.101054 0.5
248 1 0.923556 0.150303 0.5
249 2 0.95 0.101054 0.5
250 1 0.972758 0.149702 0.5
253 1 0.548796 0.203128 0.5
252 1 0.523331 0.249348 0.5
310 1 0.972185 0.446997 0.5
255 1 0.598505 0.200024 0.5
254 1 0.57463 0.249774 0.5
256 1 0.625675 0.251709 0.5
257 1 0.648954 0.201377 0.5
258 1 0.674009 0.250892 0.5
259 1 0.700702 0.202361 0.5
261 1 0.751219 0.198896 0.5
263 1 0.80112 0.200382 0.5
262 1 0.773755 0.249778 0.5
265 1 0.851095 0.199892 0.5
266 1 0.872551 0.251673 0.5
264 1 0.82434 0.251528 0.5
267 1 0.899417 0.202626 0.5
268 1 0.923257 0.249863 0.5
269 1 0.946376 0.200797 0.5
273 1 0.550713 0.298388 0.5
275 1 0.598986 0.298828 0.5
277 1 0.651563 0.299465 0.5
260 1 0.723793 0.248729 0.5
279 1 0.701776 0.297472 0.5
281 1 0.749014 0.298903 0.5
283 1 0.798808 0.296664 0.5
285 1 0.849015 0.298852 0.5
287 1 0.897278 0.301435 0.5
270 1 0.97087 0.253322 0.5
289 1 0.944873 0.301667 0.5
327 1 0.901595 0.495571 0.5
272 1 0.524901 0.346913 0.5
293 1 0.550901 0.398178 0.5
329 1 0.948717 0.495064 0.5
274 1 0.575489 0.347841 0.5
295 1 0.601172 0.400826 0.5
276 1 0.624812 0.348434 0.5
278 1 0.67524 0.348417 0.5
297 1 0.651108 0.397124 0.5
280 1 0.726193 0.346889 0.5
299 1 0.702315 0.397352 0.5
282 1 0.775128 0.346188 0.5
301 1 0.75134 0.394272 0.5
303 1 0.799221 0.397039 0.5
284 1 0.823683 0.348114 0.5
305 1 0.849543 0.398065 0.5
286 1 0.873354 0.351082 0.5
288 1 0.923588 0.351477 0.5
307 1 0.898276 0.398332 0.5
290 1 0.97281 0.349873 0.5
309 1 0.947652 0.398591 0.5
292 1 0.525751 0.447824 0.5
313 1 0.550195 0.497604 0.5
306 1 0.873519 0.446334 0.5
294 1 0.574376 0.450764 0.5
315 1 0.600753 0.497798 0.5
296 1 0.626347 0.447208 0.5
298 1 0.676276 0.446212 0.5
317 1 0.651626 0.49586 0.5
300 1 0.727016 0.448097 0.5
319 1 0.700715 0.497266 0.5
321 1 0.751235 0.496949 0.5
302 1 0.77446 0.447241 0.5
323 1 0.799339 0.496511 0.5
325 1 0.852095 0.495946 0.5
304 1 0.824617 0.447018 0.5
308 1 0.922234 0.44419 0.5
291 1 0.501879 0.398097 0.5
311 1 0.498814 0.494533 0.5
81 1 0.99632 0.397896 0.5
61 1 0.995392 0.300187 0.5
41 1 0.996054 0.200874 0.5
312 1 0.522824 0.541847 0.5
314 1 0.573958 0.543576 0.5
316 1 0.624837 0.544632 0.5
318 1 0.674858 0.54458 0.5
320 1 0.727249 0.546766 0.5
322 1 0.776596 0.545125 0.5
324 1 0.827215 0.545574 0.5
326 1 0.875077 0.544764 0.5
328 1 0.926593 0.544803 0.5
330 1 0.974673 0.547832 0.5
333 1 0.55178 0.590742 0.5
332 1 0.524335 0.637951 0.5
141 1 1.00158 0.702081 0.5
335 1 0.601143 0.590783 0.5
334 1 0.576884 0.637721 0.5
336 1 0.624539 0.640135 0.5
337 1 0.65033 0.590723 0.5
338 1 0.674133 0.640598 0.5
339 1 0.698962 0.592225 0.5
340 1 0.727098 0.640888 0.5
341 1 0.752828 0.594323 0.5
343 1 0.802752 0.595537 0.5
342 1 0.776535 0.643369 0.5
345 1 0.853894 0.598319 0.5
344 1 0.825892 0.645632 0.5
347 1 0.901044 0.592944 0.5
346 1 0.875926 0.648011 0.5
348 1 0.92534 0.645833 0.5
349 1 0.949729 0.596089 0.5
350 1 0.971469 0.64785 0.5
353 1 0.551812 0.686442 0.5
352 1 0.528247 0.739278 0.5
391 1 0.497333 0.880391 0.5
355 1 0.601352 0.689858 0.5
354 1 0.578511 0.739112 0.5
357 1 0.652848 0.687308 0.5
356 1 0.628451 0.737389 0.5
358 1 0.676973 0.738679 0.5
359 1 0.702755 0.688773 0.5
360 1 0.726698 0.741794 0.5
361 1 0.751166 0.690981 0.5
363 1 0.800104 0.694834 0.5
362 1 0.776535 0.742559 0.5
365 1 0.852572 0.697017 0.5
364 1 0.827888 0.746173 0.5
367 1 0.900488 0.701535 0.5
366 1 0.874643 0.748632 0.5
368 1 0.926562 0.749678 0.5
369 1 0.953033 0.701047 0.5
370 1 0.975424 0.752634 0.5
373 1 0.552869 0.789103 0.5
372 1 0.527139 0.83455 0.5
375 1 0.603348 0.787338 0.5
374 1 0.579808 0.835043 0.5
377 1 0.653482 0.78857 0.5
379 1 0.701697 0.791877 0.5
381 1 0.752047 0.792832 0.5
383 1 0.801731 0.795111 0.5
385 1 0.851403 0.795425 0.5
387 1 0.901836 0.799722 0.5
389 1 0.95094 0.798807 0.5
393 1 0.551576 0.882655 0.5
420 1 0.949413 0.993477 0.5
395 1 0.60179 0.884311 0.5
376 1 0.627405 0.839113 0.5
378 1 0.676608 0.840995 0.5
397 1 0.64933 0.889773 0.5
380 1 0.726476 0.840129 0.5
399 1 0.702562 0.889837 0.5
382 1 0.779021 0.844722 0.5
401 1 0.751502 0.891086 0.5
403 1 0.801233 0.892617 0.5
384 1 0.82764 0.844177 0.5
405 1 0.851033 0.898085 0.5
386 1 0.87417 0.847094 0.5
388 1 0.926274 0.846702 0.5
407 1 0.90049 0.896344 0.5
390 1 0.978118 0.846359 0.5
409 1 0.952798 0.895316 0.5
392 1 0.524653 0.929946 0.5
412 1 0.551792 0.97644 0.5
410 1 0.976737 0.945608 0.5
394 1 0.575766 0.930684 0.5
413 1 0.601177 0.989906 0.5
396 1 0.624473 0.938735 0.5
398 1 0.677796 0.940273 0.5
414 1 0.651453 0.988618 0.5
415 1 0.700221 0.99124 0.5
400 1 0.725109 0.940221 0.5
416 1 0.750859 0.990401 0.5
417 1 0.802117 0.998799 0.5
402 1 0.776181 0.940028 0.5
418 1 0.851506 0.997747 0.5
404 1 0.827251 0.948308 0.5
406 1 0.877759 0.949641 0.5
419 1 0.902665 0.999303 0.5
408 1 0.928291 0.944003 0.5
371 1 0.500553 0.786524 0.5
121 1 1.00065 0.597885 0.5
351 1 0.502875 0.688878 0.5
331 1 0.500053 0.590237 0.5
