ITEM: TIMESTEP
39000
ITEM: NUMBER OF ATOMS
420
ITEM: BOX BOUNDS pp ss pp
0.0000000000000000e+00 2.2653923264628304e+01
-1.9618873042551413e-03 2.0465831300023549e+01
-2.8317404080785380e-01 2.8317404080785380e-01
ITEM: ATOMS id type xs ys zs
1 2 0 9.58524e-05 0.5
2 2 0.025 0.0480221 0.5
3 2 0.05 9.58524e-05 0.5
4 2 0.075 0.0480221 0.5
5 2 0.1 9.58524e-05 0.5
6 2 0.125 0.0480221 0.5
7 2 0.15 9.58524e-05 0.5
8 2 0.175 0.0480221 0.5
9 2 0.2 9.58524e-05 0.5
10 2 0.225 0.0480221 0.5
11 2 0.25 9.58524e-05 0.5
12 2 0.275 0.0480221 0.5
13 2 0.3 9.58524e-05 0.5
14 2 0.325 0.0480221 0.5
15 2 0.35 9.58524e-05 0.5
16 2 0.375 0.0480221 0.5
17 2 0.4 9.58524e-05 0.5
18 2 0.425 0.0480221 0.5
19 2 0.45 9.58524e-05 0.5
20 2 0.475 0.0480221 0.5
21 2 0 0.0959483 0.5
23 2 0.05 0.0959483 0.5
25 2 0.1 0.0959483 0.5
26 1 0.12558 0.141499 0.5
24 1 0.0737997 0.143159 0.5
27 2 0.15 0.0959483 0.5
29 2 0.2 0.0959483 0.5
31 2 0.25 0.0959483 0.5
33 2 0.3 0.0959483 0.5
35 2 0.35 0.0959483 0.5
37 2 0.4 0.0959483 0.5
39 2 0.45 0.0959483 0.5
22 1 0.0237699 0.142711 0.5
43 1 0.0484393 0.189324 0.5
96 1 0.372491 0.429149 0.5
45 1 0.0976964 0.189994 0.5
28 1 0.174864 0.144926 0.5
47 1 0.148485 0.190576 0.5
30 1 0.224448 0.141962 0.5
49 1 0.19959 0.191881 0.5
51 1 0.247266 0.194468 0.5
32 1 0.273435 0.145635 0.5
53 1 0.29796 0.192239 0.5
34 1 0.323069 0.145077 0.5
36 1 0.373905 0.143111 0.5
55 1 0.34958 0.191063 0.5
38 1 0.42487 0.142878 0.5
57 1 0.398803 0.188002 0.5
40 1 0.475873 0.142278 0.5
59 1 0.448809 0.190012 0.5
42 1 0.0242179 0.233217 0.5
100 1 0.471497 0.428108 0.5
44 1 0.072766 0.237332 0.5
46 1 0.123471 0.238676 0.5
48 1 0.173925 0.239884 0.5
50 1 0.22234 0.240158 0.5
52 1 0.273834 0.240202 0.5
54 1 0.323362 0.238462 0.5
56 1 0.373157 0.237504 0.5
58 1 0.422657 0.238287 0.5
60 1 0.475519 0.235429 0.5
119 1 0.448193 0.477119 0.5
63 1 0.049089 0.283141 0.5
62 1 0.0229126 0.327452 0.5
65 1 0.0968089 0.285204 0.5
64 1 0.0737252 0.332702 0.5
67 1 0.148275 0.286421 0.5
66 1 0.123918 0.334205 0.5
68 1 0.171909 0.334198 0.5
69 1 0.197326 0.28586 0.5
70 1 0.222431 0.334179 0.5
71 1 0.246358 0.285727 0.5
73 1 0.298092 0.286071 0.5
72 1 0.271892 0.333311 0.5
75 1 0.34526 0.288738 0.5
74 1 0.324727 0.334077 0.5
77 1 0.398287 0.286638 0.5
76 1 0.374283 0.333214 0.5
78 1 0.422076 0.332013 0.5
79 1 0.450452 0.28313 0.5
80 1 0.469412 0.332857 0.5
271 1 0.498479 0.286865 0.5
83 1 0.0439674 0.379243 0.5
82 1 0.0205411 0.425446 0.5
85 1 0.0965078 0.381948 0.5
84 1 0.069975 0.426107 0.5
87 1 0.148303 0.380301 0.5
89 1 0.200209 0.379484 0.5
90 1 0.224965 0.427094 0.5
91 1 0.250158 0.38235 0.5
93 1 0.300279 0.381101 0.5
92 1 0.272136 0.430181 0.5
95 1 0.350081 0.382017 0.5
97 1 0.397685 0.381858 0.5
98 1 0.421298 0.428223 0.5
99 1 0.448459 0.380165 0.5
103 1 0.0442248 0.4706 0.5
117 1 0.397167 0.477239 0.5
86 1 0.124756 0.426417 0.5
107 1 0.0950271 0.471016 0.5
88 1 0.17439 0.42752 0.5
109 1 0.145098 0.474598 0.5
111 1 0.1948 0.473828 0.5
112 1 0.245235 0.473906 0.5
113 1 0.296968 0.475007 0.5
94 1 0.323963 0.427461 0.5
115 1 0.346394 0.476441 0.5
291 1 0.497223 0.379099 0.5
251 1 0.498677 0.188148 0.5
311 1 0.495785 0.476958 0.5
104 1 0.0455625 0.569038 0.5
102 1 0.0171744 0.52118 0.5
372 1 0.50115 0.758656 0.5
105 1 0.068513 0.517995 0.5
106 1 0.0952249 0.570213 0.5
108 1 0.119497 0.520296 0.5
110 1 0.171717 0.521129 0.5
129 1 0.146019 0.567823 0.5
133 1 0.220228 0.521427 0.5
131 1 0.196301 0.568212 0.5
134 1 0.247375 0.568988 0.5
136 1 0.296516 0.570081 0.5
135 1 0.270486 0.52422 0.5
114 1 0.322377 0.523699 0.5
116 1 0.369655 0.523842 0.5
139 1 0.396031 0.568573 0.5
118 1 0.422272 0.522313 0.5
120 1 0.472096 0.524231 0.5
331 1 0.445643 0.572527 0.5
123 1 0.0225739 0.614756 0.5
125 1 0.0722939 0.61678 0.5
127 1 0.120815 0.616545 0.5
130 1 0.171847 0.614393 0.5
132 1 0.221503 0.614636 0.5
155 1 0.271578 0.615612 0.5
137 1 0.348172 0.572282 0.5
157 1 0.323453 0.617552 0.5
138 1 0.375656 0.616768 0.5
140 1 0.422871 0.617978 0.5
332 1 0.475325 0.617491 0.5
124 1 0.0502041 0.663906 0.5
143 1 0.021966 0.706924 0.5
145 1 0.0710525 0.708769 0.5
126 1 0.0973647 0.662123 0.5
147 1 0.121415 0.709869 0.5
128 1 0.147312 0.659701 0.5
149 1 0.16899 0.70999 0.5
151 1 0.198405 0.663449 0.5
152 1 0.222902 0.709562 0.5
153 1 0.249538 0.663114 0.5
156 1 0.2991 0.665917 0.5
154 1 0.27496 0.712001 0.5
158 1 0.349944 0.662634 0.5
177 1 0.323353 0.710404 0.5
179 1 0.372452 0.71076 0.5
159 1 0.400609 0.665031 0.5
160 1 0.427008 0.712626 0.5
351 1 0.450277 0.665471 0.5
352 1 0.475347 0.71281 0.5
144 1 0.0466179 0.75504 0.5
146 1 0.0957205 0.754581 0.5
148 1 0.146428 0.756356 0.5
150 1 0.195514 0.757437 0.5
173 1 0.248143 0.754546 0.5
175 1 0.298999 0.758991 0.5
178 1 0.345925 0.75716 0.5
180 1 0.397363 0.757067 0.5
371 1 0.450842 0.759867 0.5
208 1 0.321099 0.992557 0.5
163 1 0.0231793 0.801091 0.5
164 1 0.0479824 0.85002 0.5
209 1 0.343838 0.944556 0.5
165 1 0.0709552 0.802217 0.5
166 1 0.095164 0.849718 0.5
167 1 0.118967 0.801134 0.5
168 1 0.147175 0.853013 0.5
169 1 0.17181 0.803994 0.5
171 1 0.223559 0.80178 0.5
170 1 0.196833 0.849224 0.5
172 1 0.24766 0.850777 0.5
174 1 0.270963 0.804351 0.5
195 1 0.297413 0.849066 0.5
176 1 0.323133 0.805482 0.5
197 1 0.348239 0.853564 0.5
199 1 0.371156 0.802892 0.5
391 1 0.420008 0.806282 0.5
411 1 0.475144 0.806625 0.5
333 1 0.498926 0.572925 0.5
183 1 0.0198097 0.896191 0.5
185 1 0.0677832 0.899195 0.5
187 1 0.120931 0.898672 0.5
189 1 0.171836 0.897542 0.5
191 1 0.221721 0.89936 0.5
193 1 0.274007 0.897026 0.5
196 1 0.321641 0.897494 0.5
198 1 0.373624 0.902855 0.5
210 1 0.398864 0.855945 0.5
200 1 0.449523 0.853779 0.5
184 1 0.04726 0.948079 0.5
202 1 0.0261956 0.995678 0.5
203 1 0.0765931 0.995778 0.5
186 1 0.0977493 0.945923 0.5
204 1 0.124353 0.992133 0.5
188 1 0.14876 0.943761 0.5
205 1 0.173536 0.993422 0.5
190 1 0.197207 0.943224 0.5
206 1 0.223367 0.994412 0.5
192 1 0.247921 0.944497 0.5
194 1 0.298017 0.944397 0.5
207 1 0.270785 0.994074 0.5
353 1 0.501527 0.668715 0.5
392 1 0.50059 0.8548 0.5
182 1 -0.00049431 0.946594 0.5
211 2 0.5 9.58524e-05 0.5
212 2 0.525 0.0480221 0.5
213 2 0.55 9.58524e-05 0.5
214 2 0.575 0.0480221 0.5
215 2 0.6 9.58524e-05 0.5
216 2 0.625 0.0480221 0.5
217 2 0.65 9.58524e-05 0.5
218 2 0.675 0.0480221 0.5
219 2 0.7 9.58524e-05 0.5
220 2 0.725 0.0480221 0.5
221 2 0.75 9.58524e-05 0.5
222 2 0.775 0.0480221 0.5
223 2 0.8 9.58524e-05 0.5
224 2 0.825 0.0480221 0.5
225 2 0.85 9.58524e-05 0.5
226 2 0.875 0.0480221 0.5
227 2 0.9 9.58524e-05 0.5
228 2 0.925 0.0480221 0.5
229 2 0.95 9.58524e-05 0.5
230 2 0.975 0.0480221 0.5
231 2 0.5 0.0959483 0.5
233 2 0.55 0.0959483 0.5
235 2 0.6 0.0959483 0.5
237 2 0.65 0.0959483 0.5
239 2 0.7 0.0959483 0.5
241 2 0.75 0.0959483 0.5
243 2 0.8 0.0959483 0.5
242 1 0.774144 0.14395 0.5
245 2 0.85 0.0959483 0.5
247 2 0.9 0.0959483 0.5
248 1 0.926502 0.141921 0.5
249 2 0.95 0.0959483 0.5
250 1 0.973951 0.140551 0.5
232 1 0.523743 0.142038 0.5
253 1 0.548989 0.191394 0.5
329 1 0.945715 0.476049 0.5
234 1 0.576205 0.142929 0.5
255 1 0.599836 0.189645 0.5
236 1 0.623875 0.143165 0.5
238 1 0.674439 0.143305 0.5
257 1 0.648353 0.187386 0.5
240 1 0.72346 0.143336 0.5
259 1 0.700069 0.193618 0.5
261 1 0.748714 0.188292 0.5
263 1 0.802186 0.189097 0.5
244 1 0.825366 0.143545 0.5
265 1 0.850134 0.190731 0.5
246 1 0.874432 0.144937 0.5
267 1 0.902123 0.189134 0.5
269 1 0.951638 0.190383 0.5
252 1 0.52334 0.237806 0.5
273 1 0.546893 0.284855 0.5
254 1 0.573869 0.236771 0.5
275 1 0.597362 0.281424 0.5
256 1 0.623722 0.234171 0.5
258 1 0.672426 0.237352 0.5
260 1 0.724886 0.241083 0.5
279 1 0.698426 0.286211 0.5
262 1 0.77506 0.236191 0.5
283 1 0.799591 0.284373 0.5
264 1 0.827142 0.237239 0.5
285 1 0.849117 0.284637 0.5
266 1 0.875221 0.237522 0.5
268 1 0.924428 0.236514 0.5
287 1 0.89958 0.283563 0.5
270 1 0.97334 0.238574 0.5
289 1 0.94811 0.283352 0.5
272 1 0.520293 0.334178 0.5
274 1 0.570091 0.333445 0.5
277 1 0.645651 0.286855 0.5
276 1 0.619279 0.332151 0.5
278 1 0.671976 0.331693 0.5
281 1 0.75089 0.289508 0.5
280 1 0.724838 0.333164 0.5
282 1 0.774038 0.336799 0.5
284 1 0.82276 0.331974 0.5
286 1 0.876206 0.331606 0.5
288 1 0.925424 0.330906 0.5
290 1 0.974435 0.329772 0.5
293 1 0.547588 0.379357 0.5
325 1 0.848326 0.475109 0.5
294 1 0.569325 0.425513 0.5
295 1 0.596284 0.379237 0.5
297 1 0.64701 0.382493 0.5
298 1 0.673169 0.431289 0.5
299 1 0.697731 0.382298 0.5
300 1 0.722463 0.428574 0.5
301 1 0.746298 0.381507 0.5
303 1 0.799143 0.383226 0.5
302 1 0.772451 0.428652 0.5
305 1 0.848258 0.377511 0.5
304 1 0.823063 0.427795 0.5
307 1 0.897634 0.379078 0.5
306 1 0.874154 0.425291 0.5
308 1 0.921366 0.427593 0.5
310 1 0.968939 0.42607 0.5
309 1 0.94743 0.377798 0.5
292 1 0.520775 0.425501 0.5
313 1 0.545599 0.477793 0.5
327 1 0.895368 0.474638 0.5
315 1 0.595184 0.474624 0.5
296 1 0.62164 0.428645 0.5
317 1 0.644889 0.475336 0.5
319 1 0.69637 0.476958 0.5
321 1 0.746955 0.4728 0.5
323 1 0.796749 0.474185 0.5
81 1 0.994882 0.379086 0.5
61 1 1.00056 0.279878 0.5
101 1 0.995098 0.472701 0.5
41 1 0.999718 0.187064 0.5
312 1 0.521115 0.52377 0.5
335 1 0.548743 0.570416 0.5
314 1 0.572242 0.523758 0.5
336 1 0.597892 0.570419 0.5
316 1 0.6203 0.522729 0.5
337 1 0.645223 0.571688 0.5
318 1 0.672361 0.5226 0.5
320 1 0.723332 0.522383 0.5
339 1 0.695893 0.570841 0.5
343 1 0.791663 0.570515 0.5
322 1 0.770505 0.520619 0.5
341 1 0.744259 0.570945 0.5
324 1 0.820166 0.520355 0.5
345 1 0.844802 0.566277 0.5
326 1 0.87179 0.521457 0.5
328 1 0.92146 0.522563 0.5
347 1 0.896981 0.568231 0.5
349 1 0.946564 0.569893 0.5
330 1 0.969437 0.522784 0.5
334 1 0.523885 0.619079 0.5
201 1 0.973835 0.991042 0.5
355 1 0.572681 0.617699 0.5
357 1 0.621557 0.61669 0.5
338 1 0.673269 0.619995 0.5
340 1 0.721904 0.617481 0.5
342 1 0.770741 0.617662 0.5
344 1 0.821628 0.613046 0.5
346 1 0.871178 0.615604 0.5
348 1 0.92207 0.616029 0.5
350 1 0.970649 0.615339 0.5
373 1 0.525798 0.712908 0.5
354 1 0.550816 0.664899 0.5
122 1 0.997039 0.66109 0.5
356 1 0.598988 0.666248 0.5
377 1 0.626204 0.711318 0.5
358 1 0.646524 0.662392 0.5
379 1 0.673314 0.711003 0.5
359 1 0.697817 0.665848 0.5
360 1 0.722238 0.713676 0.5
361 1 0.746748 0.664908 0.5
363 1 0.797924 0.664127 0.5
362 1 0.772519 0.71162 0.5
365 1 0.846696 0.663261 0.5
364 1 0.822006 0.708977 0.5
366 1 0.869439 0.70984 0.5
367 1 0.895191 0.662635 0.5
368 1 0.919874 0.710035 0.5
369 1 0.945267 0.661697 0.5
141 1 0.96958 0.708767 0.5
410 1 0.948403 0.945355 0.5
374 1 0.547575 0.758814 0.5
375 1 0.575848 0.713077 0.5
376 1 0.599434 0.759062 0.5
378 1 0.649199 0.761323 0.5
380 1 0.697773 0.75968 0.5
381 1 0.747752 0.759285 0.5
383 1 0.796121 0.759108 0.5
385 1 0.845278 0.757452 0.5
387 1 0.894792 0.755894 0.5
370 1 0.946289 0.754377 0.5
121 1 0.994805 0.569612 0.5
393 1 0.524307 0.80969 0.5
412 1 0.549929 0.856407 0.5
394 1 0.571416 0.809414 0.5
413 1 0.598917 0.853847 0.5
395 1 0.622652 0.807937 0.5
397 1 0.672072 0.806652 0.5
401 1 0.723858 0.805661 0.5
399 1 0.699797 0.851697 0.5
400 1 0.747538 0.851323 0.5
382 1 0.774099 0.806213 0.5
403 1 0.800428 0.853147 0.5
384 1 0.822504 0.806016 0.5
405 1 0.847864 0.853754 0.5
386 1 0.872136 0.803398 0.5
389 1 0.921706 0.800576 0.5
388 1 0.898887 0.848187 0.5
161 1 0.972748 0.802453 0.5
390 1 0.949275 0.849877 0.5
396 1 0.651141 0.851747 0.5
414 1 0.676519 0.898288 0.5
398 1 0.725498 0.897266 0.5
402 1 0.774363 0.89745 0.5
404 1 0.825998 0.901786 0.5
407 1 0.875196 0.899336 0.5
409 1 0.923055 0.899082 0.5
181 1 0.97244 0.89792 0.5
415 1 0.747542 0.950399 0.5
417 1 0.799849 0.949855 0.5
416 1 0.775448 0.995243 0.5
406 1 0.85005 0.950318 0.5
418 1 0.826891 0.999893 0.5
419 1 0.876073 0.997013 0.5
420 1 0.92447 0.99065 0.5
408 1 0.898722 0.947391 0.5
142 1 0.997895 0.755937 0.5
162 1 0.999108 0.848265 0.5
