ITEM: TIMESTEP
54000
ITEM: NUMBER OF ATOMS
420
ITEM: BOX BOUNDS pp ss pp
0.0000000000000000e+00 2.2653923264628304e+01
-1.9618873042551413e-03 2.0645525135689336e+01
-2.8317404080785380e-01 2.8317404080785380e-01
ITEM: ATOMS id type xs ys zs
1 2 0 9.50182e-05 0.5
2 2 0.025 0.0476041 0.5
3 2 0.05 9.50182e-05 0.5
4 2 0.075 0.0476041 0.5
5 2 0.1 9.50182e-05 0.5
6 2 0.125 0.0476041 0.5
7 2 0.15 9.50182e-05 0.5
8 2 0.175 0.0476041 0.5
9 2 0.2 9.50182e-05 0.5
10 2 0.225 0.0476041 0.5
11 2 0.25 9.50182e-05 0.5
12 2 0.275 0.0476041 0.5
13 2 0.3 9.50182e-05 0.5
14 2 0.325 0.0476041 0.5
15 2 0.35 9.50182e-05 0.5
16 2 0.375 0.0476041 0.5
17 2 0.4 9.50182e-05 0.5
18 2 0.425 0.0476041 0.5
19 2 0.45 9.50182e-05 0.5
20 2 0.475 0.0476041 0.5
21 2 0 0.0951132 0.5
23 2 0.05 0.0951132 0.5
22 1 0.0260695 0.141355 0.5
25 2 0.1 0.0951132 0.5
24 1 0.0736855 0.144043 0.5
26 1 0.12513 0.140877 0.5
27 2 0.15 0.0951132 0.5
29 2 0.2 0.0951132 0.5
31 2 0.25 0.0951132 0.5
33 2 0.3 0.0951132 0.5
32 1 0.276411 0.142667 0.5
35 2 0.35 0.0951132 0.5
36 1 0.379405 0.144333 0.5
37 2 0.4 0.0951132 0.5
38 1 0.427859 0.142254 0.5
39 2 0.45 0.0951132 0.5
40 1 0.476035 0.141532 0.5
43 1 0.0475725 0.189199 0.5
45 1 0.097765 0.187336 0.5
28 1 0.173845 0.141671 0.5
47 1 0.148229 0.188013 0.5
30 1 0.224268 0.143738 0.5
49 1 0.19945 0.187046 0.5
51 1 0.248922 0.188862 0.5
53 1 0.302769 0.190864 0.5
34 1 0.328594 0.142531 0.5
55 1 0.355246 0.191875 0.5
57 1 0.403845 0.192695 0.5
59 1 0.452786 0.192329 0.5
117 1 0.397176 0.469131 0.5
42 1 0.0234781 0.236318 0.5
63 1 0.0478915 0.284152 0.5
311 1 0.497869 0.470425 0.5
44 1 0.0740813 0.234127 0.5
65 1 0.100916 0.282382 0.5
46 1 0.123673 0.233688 0.5
48 1 0.172235 0.234511 0.5
67 1 0.148454 0.282863 0.5
50 1 0.221988 0.237296 0.5
69 1 0.197413 0.284367 0.5
71 1 0.246324 0.282284 0.5
52 1 0.274188 0.23478 0.5
73 1 0.298604 0.283148 0.5
54 1 0.325654 0.238294 0.5
75 1 0.349252 0.28519 0.5
56 1 0.374584 0.237409 0.5
58 1 0.426915 0.237965 0.5
77 1 0.398524 0.283947 0.5
60 1 0.477737 0.236785 0.5
100 1 0.474905 0.423521 0.5
62 1 0.0253261 0.333186 0.5
64 1 0.0747658 0.330739 0.5
66 1 0.124207 0.330822 0.5
68 1 0.173221 0.330883 0.5
70 1 0.222358 0.328947 0.5
72 1 0.27433 0.328281 0.5
74 1 0.326058 0.332622 0.5
76 1 0.374551 0.33105 0.5
78 1 0.424761 0.328154 0.5
79 1 0.451755 0.281769 0.5
80 1 0.474904 0.329263 0.5
83 1 0.0510407 0.378597 0.5
82 1 0.0204881 0.425393 0.5
119 1 0.447854 0.469561 0.5
85 1 0.100653 0.378089 0.5
84 1 0.0702461 0.425513 0.5
86 1 0.1197 0.428709 0.5
87 1 0.149464 0.379554 0.5
88 1 0.16993 0.429023 0.5
89 1 0.197457 0.376036 0.5
90 1 0.22137 0.426654 0.5
91 1 0.246103 0.378383 0.5
93 1 0.298421 0.376378 0.5
92 1 0.271578 0.425365 0.5
95 1 0.347737 0.380927 0.5
94 1 0.32099 0.423747 0.5
96 1 0.374756 0.42237 0.5
97 1 0.400093 0.375857 0.5
99 1 0.449949 0.375323 0.5
98 1 0.423651 0.423435 0.5
103 1 0.0460924 0.471543 0.5
107 1 0.0931838 0.474143 0.5
109 1 0.143791 0.475692 0.5
111 1 0.19655 0.474648 0.5
112 1 0.247447 0.470839 0.5
113 1 0.29877 0.473496 0.5
115 1 0.348263 0.470673 0.5
291 1 0.501169 0.375851 0.5
102 1 0.0195476 0.517619 0.5
104 1 0.045198 0.568049 0.5
105 1 0.0680075 0.521228 0.5
106 1 0.0957621 0.568208 0.5
108 1 0.119816 0.522262 0.5
110 1 0.169538 0.520863 0.5
129 1 0.145515 0.569947 0.5
133 1 0.218633 0.520414 0.5
131 1 0.194562 0.56951 0.5
134 1 0.244212 0.565454 0.5
135 1 0.268449 0.519182 0.5
136 1 0.294245 0.565795 0.5
114 1 0.323375 0.520373 0.5
116 1 0.373102 0.516853 0.5
137 1 0.345063 0.566659 0.5
118 1 0.423069 0.516998 0.5
139 1 0.39698 0.563628 0.5
120 1 0.471303 0.51571 0.5
331 1 0.447787 0.564856 0.5
207 1 0.275372 0.994174 0.5
123 1 0.0205662 0.613774 0.5
125 1 0.0705862 0.616752 0.5
127 1 0.120905 0.619043 0.5
130 1 0.170945 0.617061 0.5
132 1 0.221749 0.613931 0.5
155 1 0.271661 0.61234 0.5
157 1 0.318661 0.614784 0.5
138 1 0.371588 0.611554 0.5
140 1 0.424101 0.612891 0.5
332 1 0.473218 0.612026 0.5
124 1 0.0502295 0.663146 0.5
143 1 0.0234632 0.707253 0.5
126 1 0.0978706 0.664235 0.5
145 1 0.0721677 0.71162 0.5
147 1 0.124969 0.71201 0.5
128 1 0.14816 0.664974 0.5
149 1 0.175619 0.71017 0.5
151 1 0.196797 0.661361 0.5
152 1 0.224322 0.70993 0.5
153 1 0.24679 0.659458 0.5
156 1 0.294898 0.659474 0.5
154 1 0.271767 0.71098 0.5
158 1 0.344355 0.659663 0.5
179 1 0.371543 0.709129 0.5
177 1 0.321077 0.707817 0.5
159 1 0.396451 0.661568 0.5
351 1 0.444893 0.662638 0.5
353 1 0.495475 0.659343 0.5
144 1 0.0471535 0.758091 0.5
208 1 0.32572 0.996688 0.5
146 1 0.0979369 0.7566 0.5
148 1 0.147703 0.759607 0.5
150 1 0.199365 0.760522 0.5
173 1 0.244916 0.758823 0.5
175 1 0.295825 0.758696 0.5
178 1 0.34592 0.753814 0.5
160 1 0.420935 0.708632 0.5
180 1 0.393302 0.753733 0.5
352 1 0.47335 0.709414 0.5
371 1 0.443292 0.754307 0.5
372 1 0.494821 0.757602 0.5
163 1 0.0211972 0.802493 0.5
164 1 0.0441248 0.850687 0.5
209 1 0.346156 0.94759 0.5
165 1 0.071779 0.804788 0.5
166 1 0.0963896 0.853802 0.5
167 1 0.123148 0.805353 0.5
169 1 0.172642 0.809253 0.5
168 1 0.147338 0.856844 0.5
171 1 0.222409 0.808819 0.5
170 1 0.197054 0.85579 0.5
172 1 0.246034 0.854118 0.5
174 1 0.270622 0.806591 0.5
195 1 0.295153 0.852189 0.5
176 1 0.322895 0.803398 0.5
197 1 0.344485 0.853957 0.5
199 1 0.37053 0.802347 0.5
391 1 0.418063 0.804128 0.5
210 1 0.393711 0.854007 0.5
411 1 0.47062 0.803327 0.5
200 1 0.445373 0.850313 0.5
392 1 0.49527 0.849709 0.5
183 1 0.0216774 0.899126 0.5
185 1 0.0706561 0.899265 0.5
187 1 0.12212 0.902896 0.5
189 1 0.173312 0.90124 0.5
191 1 0.221198 0.903565 0.5
193 1 0.268717 0.901143 0.5
196 1 0.320634 0.900133 0.5
198 1 0.37229 0.901069 0.5
184 1 0.0450985 0.948028 0.5
202 1 0.0203857 0.993291 0.5
203 1 0.0686618 0.996817 0.5
186 1 0.0959638 0.949039 0.5
204 1 0.119611 0.996865 0.5
188 1 0.145876 0.951296 0.5
205 1 0.169654 0.998048 0.5
206 1 0.220064 0.999389 0.5
192 1 0.246936 0.951159 0.5
190 1 0.197643 0.951008 0.5
194 1 0.294997 0.945287 0.5
333 1 0.497871 0.562414 0.5
211 2 0.5 9.50182e-05 0.5
212 2 0.525 0.0476041 0.5
213 2 0.55 9.50182e-05 0.5
214 2 0.575 0.0476041 0.5
215 2 0.6 9.50182e-05 0.5
216 2 0.625 0.0476041 0.5
217 2 0.65 9.50182e-05 0.5
218 2 0.675 0.0476041 0.5
219 2 0.7 9.50182e-05 0.5
220 2 0.725 0.0476041 0.5
221 2 0.75 9.50182e-05 0.5
222 2 0.775 0.0476041 0.5
223 2 0.8 9.50182e-05 0.5
224 2 0.825 0.0476041 0.5
225 2 0.85 9.50182e-05 0.5
226 2 0.875 0.0476041 0.5
227 2 0.9 9.50182e-05 0.5
228 2 0.925 0.0476041 0.5
229 2 0.95 9.50182e-05 0.5
230 2 0.975 0.0476041 0.5
231 2 0.5 0.0951132 0.5
233 2 0.55 0.0951132 0.5
232 1 0.527694 0.14172 0.5
235 2 0.6 0.0951132 0.5
234 1 0.576087 0.141772 0.5
236 1 0.625754 0.144687 0.5
237 2 0.65 0.0951132 0.5
239 2 0.7 0.0951132 0.5
241 2 0.75 0.0951132 0.5
243 2 0.8 0.0951132 0.5
245 2 0.85 0.0951132 0.5
247 2 0.9 0.0951132 0.5
249 2 0.95 0.0951132 0.5
250 1 0.975499 0.145163 0.5
253 1 0.552254 0.187669 0.5
255 1 0.603901 0.190202 0.5
238 1 0.676302 0.143682 0.5
257 1 0.652718 0.189927 0.5
240 1 0.726722 0.142032 0.5
259 1 0.703297 0.18852 0.5
242 1 0.774329 0.14006 0.5
261 1 0.752289 0.192732 0.5
263 1 0.799529 0.18775 0.5
244 1 0.823719 0.142462 0.5
246 1 0.871271 0.145173 0.5
265 1 0.847625 0.190281 0.5
248 1 0.925823 0.1427 0.5
267 1 0.89775 0.190486 0.5
269 1 0.94965 0.193156 0.5
101 1 0.994323 0.47102 0.5
252 1 0.528611 0.237016 0.5
254 1 0.576212 0.236574 0.5
275 1 0.598714 0.285188 0.5
256 1 0.625925 0.239568 0.5
258 1 0.674363 0.237567 0.5
277 1 0.650441 0.284276 0.5
260 1 0.724081 0.238181 0.5
279 1 0.698289 0.281656 0.5
281 1 0.747158 0.284641 0.5
262 1 0.772437 0.240239 0.5
264 1 0.819792 0.239532 0.5
266 1 0.873725 0.237142 0.5
268 1 0.922134 0.23612 0.5
287 1 0.899279 0.284174 0.5
270 1 0.973927 0.237249 0.5
289 1 0.948543 0.284241 0.5
273 1 0.550083 0.283308 0.5
272 1 0.527625 0.331239 0.5
274 1 0.57507 0.331828 0.5
276 1 0.622811 0.331468 0.5
278 1 0.671565 0.330847 0.5
280 1 0.722851 0.329764 0.5
283 1 0.798037 0.285443 0.5
282 1 0.770689 0.332969 0.5
285 1 0.850484 0.28497 0.5
284 1 0.82419 0.331401 0.5
286 1 0.875105 0.331231 0.5
288 1 0.924697 0.329751 0.5
290 1 0.97403 0.330818 0.5
293 1 0.550166 0.378447 0.5
292 1 0.523762 0.426176 0.5
295 1 0.597777 0.376962 0.5
297 1 0.646726 0.377892 0.5
298 1 0.673877 0.424487 0.5
299 1 0.696789 0.377565 0.5
300 1 0.722978 0.424973 0.5
301 1 0.745778 0.377363 0.5
303 1 0.799104 0.377411 0.5
302 1 0.77193 0.422903 0.5
305 1 0.847987 0.377549 0.5
304 1 0.824989 0.424146 0.5
308 1 0.921283 0.423856 0.5
307 1 0.898559 0.37752 0.5
306 1 0.874682 0.426748 0.5
310 1 0.971276 0.425023 0.5
309 1 0.947648 0.378088 0.5
313 1 0.548095 0.47091 0.5
296 1 0.620337 0.425301 0.5
294 1 0.572956 0.425655 0.5
315 1 0.596475 0.473963 0.5
317 1 0.646087 0.469345 0.5
319 1 0.695495 0.471377 0.5
321 1 0.747639 0.47111 0.5
323 1 0.795827 0.469482 0.5
325 1 0.848646 0.473552 0.5
327 1 0.897594 0.473081 0.5
329 1 0.947005 0.470879 0.5
61 1 0.997929 0.28668 0.5
271 1 0.500649 0.285712 0.5
251 1 0.504522 0.190249 0.5
41 1 0.998517 0.190266 0.5
81 1 0.996672 0.380653 0.5
312 1 0.521889 0.516613 0.5
314 1 0.570637 0.519344 0.5
336 1 0.596298 0.564387 0.5
316 1 0.62211 0.520851 0.5
318 1 0.6705 0.519703 0.5
337 1 0.645469 0.567372 0.5
320 1 0.722561 0.51681 0.5
339 1 0.697961 0.564737 0.5
341 1 0.748749 0.564887 0.5
322 1 0.771094 0.521115 0.5
343 1 0.798381 0.567305 0.5
324 1 0.820195 0.519479 0.5
345 1 0.846025 0.565823 0.5
326 1 0.872211 0.520768 0.5
328 1 0.922912 0.520305 0.5
347 1 0.896126 0.566695 0.5
330 1 0.971356 0.517726 0.5
121 1 0.994469 0.562999 0.5
335 1 0.54736 0.565737 0.5
334 1 0.521835 0.610493 0.5
355 1 0.570608 0.611504 0.5
357 1 0.620686 0.612353 0.5
338 1 0.67486 0.613002 0.5
340 1 0.721599 0.613105 0.5
342 1 0.771397 0.612567 0.5
344 1 0.823122 0.613743 0.5
346 1 0.874277 0.617556 0.5
348 1 0.924236 0.615505 0.5
349 1 0.945774 0.566698 0.5
350 1 0.971235 0.611654 0.5
354 1 0.54532 0.658965 0.5
373 1 0.521307 0.708898 0.5
356 1 0.598528 0.659685 0.5
375 1 0.56906 0.704686 0.5
358 1 0.646512 0.658866 0.5
359 1 0.697097 0.660704 0.5
360 1 0.725083 0.705879 0.5
361 1 0.747494 0.65925 0.5
363 1 0.798582 0.66026 0.5
362 1 0.774595 0.704183 0.5
365 1 0.849521 0.660913 0.5
364 1 0.822063 0.707446 0.5
366 1 0.872718 0.707362 0.5
367 1 0.900011 0.662954 0.5
368 1 0.921923 0.708669 0.5
369 1 0.948685 0.660759 0.5
141 1 0.973363 0.707323 0.5
122 1 0.997336 0.660337 0.5
374 1 0.545221 0.75387 0.5
377 1 0.621561 0.708708 0.5
376 1 0.594456 0.753259 0.5
379 1 0.674103 0.705736 0.5
378 1 0.646604 0.753069 0.5
380 1 0.697797 0.750601 0.5
381 1 0.747578 0.752503 0.5
383 1 0.798278 0.753953 0.5
385 1 0.847324 0.755267 0.5
387 1 0.896044 0.753402 0.5
370 1 0.948867 0.755904 0.5
393 1 0.521945 0.80275 0.5
412 1 0.548469 0.849381 0.5
394 1 0.571385 0.801042 0.5
413 1 0.599372 0.846454 0.5
395 1 0.620766 0.797027 0.5
397 1 0.670859 0.79734 0.5
401 1 0.722487 0.802248 0.5
399 1 0.69575 0.848693 0.5
400 1 0.74691 0.849182 0.5
382 1 0.771418 0.799545 0.5
403 1 0.795535 0.846737 0.5
384 1 0.821466 0.801934 0.5
405 1 0.844153 0.849679 0.5
386 1 0.871832 0.802525 0.5
389 1 0.924298 0.800014 0.5
388 1 0.899496 0.84819 0.5
161 1 0.975048 0.802601 0.5
390 1 0.946694 0.848555 0.5
396 1 0.647512 0.843768 0.5
414 1 0.668808 0.897287 0.5
398 1 0.719262 0.897942 0.5
402 1 0.77238 0.896609 0.5
404 1 0.819844 0.896485 0.5
407 1 0.872443 0.897926 0.5
409 1 0.920751 0.895656 0.5
181 1 0.972915 0.89933 0.5
415 1 0.745985 0.941103 0.5
417 1 0.797979 0.947297 0.5
416 1 0.766605 0.987774 0.5
406 1 0.846227 0.943767 0.5
418 1 0.817142 0.996915 0.5
408 1 0.897999 0.945743 0.5
419 1 0.868842 0.990218 0.5
420 1 0.919108 0.994367 0.5
201 1 0.970439 0.994561 0.5
410 1 0.94872 0.947355 0.5
182 1 0.99793 0.943897 0.5
142 1 0.997152 0.754497 0.5
162 1 0.99532 0.852147 0.5
