ITEM: TIMESTEP
25500
ITEM: NUMBER OF ATOMS
420
ITEM: BOX BOUNDS pp ss pp
0.0000000000000000e+00 2.2653923264628304e+01
-1.9618873042551413e-03 2.1471267732491576e+01
-2.8317404080785380e-01 2.8317404080785380e-01
ITEM: ATOMS id type xs ys zs
1 2 0 9.13643e-05 0.5
2 2 0.025 0.0457735 0.5
3 2 0.05 9.13643e-05 0.5
4 2 0.075 0.0457735 0.5
5 2 0.1 9.13643e-05 0.5
6 2 0.125 0.0457735 0.5
7 2 0.15 9.13643e-05 0.5
8 2 0.175 0.0457735 0.5
9 2 0.2 9.13643e-05 0.5
10 2 0.225 0.0457735 0.5
11 2 0.25 9.13643e-05 0.5
12 2 0.275 0.0457735 0.5
13 2 0.3 9.13643e-05 0.5
14 2 0.325 0.0457735 0.5
15 2 0.35 9.13643e-05 0.5
16 2 0.375 0.0457735 0.5
17 2 0.4 9.13643e-05 0.5
18 2 0.425 0.0457735 0.5
19 2 0.45 9.13643e-05 0.5
20 2 0.475 0.0457735 0.5
21 2 0 0.0914557 0.5
23 2 0.05 0.0914557 0.5
22 1 0.0241427 0.135828 0.5
25 2 0.1 0.0914557 0.5
24 1 0.074998 0.135479 0.5
26 1 0.123953 0.135451 0.5
27 2 0.15 0.0914557 0.5
28 1 0.17475 0.135754 0.5
29 2 0.2 0.0914557 0.5
30 1 0.22276 0.134995 0.5
31 2 0.25 0.0914557 0.5
33 2 0.3 0.0914557 0.5
32 1 0.275444 0.137632 0.5
35 2 0.35 0.0914557 0.5
34 1 0.323679 0.135082 0.5
36 1 0.372546 0.137033 0.5
37 2 0.4 0.0914557 0.5
38 1 0.423891 0.136802 0.5
39 2 0.45 0.0914557 0.5
40 1 0.472542 0.13868 0.5
43 1 0.0475783 0.178314 0.5
110 1 0.168604 0.499363 0.5
45 1 0.0985451 0.179456 0.5
47 1 0.148072 0.179369 0.5
49 1 0.19861 0.180046 0.5
51 1 0.247221 0.180975 0.5
53 1 0.297058 0.181653 0.5
55 1 0.348752 0.180612 0.5
57 1 0.397599 0.181636 0.5
59 1 0.445653 0.180697 0.5
42 1 0.0247277 0.224592 0.5
63 1 0.0469525 0.268447 0.5
44 1 0.0718701 0.223957 0.5
65 1 0.0968572 0.268567 0.5
46 1 0.12117 0.224358 0.5
48 1 0.169986 0.223374 0.5
67 1 0.147115 0.272597 0.5
50 1 0.220707 0.223434 0.5
69 1 0.19601 0.267336 0.5
71 1 0.243347 0.26771 0.5
52 1 0.268823 0.223589 0.5
73 1 0.295434 0.265676 0.5
54 1 0.319239 0.224039 0.5
56 1 0.371396 0.224632 0.5
75 1 0.343794 0.268709 0.5
58 1 0.422541 0.227737 0.5
77 1 0.395824 0.270961 0.5
60 1 0.472667 0.226822 0.5
79 1 0.4464 0.273737 0.5
271 1 0.49819 0.271253 0.5
62 1 0.0258183 0.315313 0.5
64 1 0.0740863 0.315561 0.5
66 1 0.122087 0.31794 0.5
85 1 0.0989755 0.363083 0.5
68 1 0.168868 0.316222 0.5
70 1 0.217574 0.313176 0.5
91 1 0.242686 0.354737 0.5
89 1 0.195878 0.361713 0.5
72 1 0.267387 0.308682 0.5
93 1 0.289919 0.353449 0.5
74 1 0.316637 0.311971 0.5
76 1 0.367778 0.311791 0.5
95 1 0.341423 0.353465 0.5
78 1 0.421277 0.313783 0.5
97 1 0.392123 0.354653 0.5
80 1 0.46854 0.316606 0.5
83 1 0.048159 0.364824 0.5
82 1 0.024166 0.407299 0.5
86 1 0.120483 0.408716 0.5
84 1 0.0716139 0.40832 0.5
87 1 0.147938 0.361671 0.5
88 1 0.169271 0.407782 0.5
90 1 0.21972 0.407075 0.5
92 1 0.26673 0.396729 0.5
94 1 0.31557 0.396184 0.5
96 1 0.364719 0.39716 0.5
98 1 0.414732 0.402486 0.5
99 1 0.44382 0.362623 0.5
100 1 0.463162 0.407711 0.5
291 1 0.493571 0.365063 0.5
103 1 0.0464667 0.45333 0.5
251 1 0.499223 0.1825 0.5
105 1 0.0687058 0.498706 0.5
107 1 0.0933158 0.450513 0.5
118 1 0.407575 0.49003 0.5
109 1 0.145055 0.452068 0.5
311 1 0.483694 0.456062 0.5
111 1 0.193273 0.452692 0.5
112 1 0.242435 0.45627 0.5
120 1 0.455455 0.497373 0.5
113 1 0.287356 0.439094 0.5
114 1 0.312408 0.48104 0.5
115 1 0.339238 0.439631 0.5
116 1 0.360068 0.48265 0.5
119 1 0.436022 0.449058 0.5
117 1 0.388369 0.443555 0.5
108 1 0.11599 0.497126 0.5
133 1 0.218848 0.498345 0.5
104 1 0.0429871 0.547993 0.5
106 1 0.0903982 0.54452 0.5
129 1 0.139743 0.542979 0.5
131 1 0.193409 0.541391 0.5
134 1 0.240757 0.544331 0.5
163 1 0.0090112 0.775844 0.5
136 1 0.290822 0.553341 0.5
137 1 0.329067 0.525955 0.5
138 1 0.346503 0.569422 0.5
139 1 0.377691 0.52927 0.5
331 1 0.427685 0.539357 0.5
333 1 0.476121 0.541981 0.5
123 1 0.0200335 0.593963 0.5
125 1 0.0677012 0.590562 0.5
124 1 0.0454248 0.638189 0.5
127 1 0.115411 0.586756 0.5
126 1 0.0914262 0.640989 0.5
130 1 0.164374 0.583992 0.5
128 1 0.136899 0.628632 0.5
151 1 0.185852 0.630241 0.5
132 1 0.214205 0.588083 0.5
153 1 0.232693 0.636824 0.5
155 1 0.263352 0.593741 0.5
157 1 0.310643 0.602291 0.5
159 1 0.363638 0.615268 0.5
140 1 0.394823 0.573413 0.5
351 1 0.412416 0.621734 0.5
332 1 0.445183 0.583522 0.5
334 1 0.494767 0.591233 0.5
353 1 0.462672 0.629258 0.5
143 1 0.0189872 0.685656 0.5
145 1 0.066376 0.685418 0.5
147 1 0.114135 0.693299 0.5
149 1 0.155056 0.671977 0.5
152 1 0.203384 0.6794 0.5
154 1 0.252655 0.684957 0.5
156 1 0.280016 0.643427 0.5
177 1 0.298256 0.692645 0.5
158 1 0.331924 0.652072 0.5
179 1 0.345205 0.701654 0.5
160 1 0.380203 0.660514 0.5
352 1 0.429614 0.667083 0.5
371 1 0.393665 0.707519 0.5
373 1 0.477844 0.676574 0.5
372 1 0.441231 0.715887 0.5
144 1 0.0413403 0.73186 0.5
165 1 0.059154 0.780952 0.5
146 1 0.0911653 0.739043 0.5
148 1 0.138932 0.754162 0.5
167 1 0.106938 0.79264 0.5
150 1 0.171179 0.717788 0.5
169 1 0.156269 0.805653 0.5
173 1 0.21886 0.727329 0.5
171 1 0.18588 0.767325 0.5
174 1 0.234972 0.775474 0.5
175 1 0.265143 0.733775 0.5
176 1 0.280946 0.779703 0.5
178 1 0.315255 0.739611 0.5
180 1 0.363466 0.751155 0.5
391 1 0.409829 0.754936 0.5
393 1 0.486671 0.723984 0.5
392 1 0.458389 0.76307 0.5
164 1 0.0288785 0.822599 0.5
166 1 0.0752185 0.829909 0.5
168 1 0.122184 0.8434 0.5
170 1 0.171701 0.855973 0.5
172 1 0.202124 0.816689 0.5
195 1 0.252735 0.823771 0.5
197 1 0.300502 0.827306 0.5
199 1 0.329801 0.78846 0.5
210 1 0.349031 0.83576 0.5
200 1 0.37939 0.797027 0.5
411 1 0.426224 0.800933 0.5
412 1 0.499172 0.787273 0.5
185 1 0.0444873 0.870361 0.5
186 1 0.0603486 0.920059 0.5
184 1 0.0120971 0.912884 0.5
187 1 0.0900771 0.882554 0.5
188 1 0.107338 0.933756 0.5
189 1 0.140548 0.893009 0.5
191 1 0.190378 0.905476 0.5
194 1 0.238528 0.91608 0.5
193 1 0.220959 0.864707 0.5
209 1 0.288308 0.91933 0.5
196 1 0.266389 0.874215 0.5
198 1 0.314821 0.874094 0.5
203 1 0.0327423 0.964206 0.5
205 1 0.126746 0.986825 0.5
204 1 0.079631 0.974569 0.5
206 1 0.174968 0.992679 0.5
190 1 0.156268 0.945528 0.5
192 1 0.207321 0.95387 0.5
207 1 0.224633 0.999718 0.5
208 1 0.261442 0.962136 0.5
135 1 0.267599 0.500815 0.5
102 1 0.0223543 0.502477 0.5
211 2 0.5 9.13643e-05 0.5
212 2 0.525 0.0457735 0.5
213 2 0.55 9.13643e-05 0.5
214 2 0.575 0.0457735 0.5
215 2 0.6 9.13643e-05 0.5
216 2 0.625 0.0457735 0.5
217 2 0.65 9.13643e-05 0.5
218 2 0.675 0.0457735 0.5
219 2 0.7 9.13643e-05 0.5
220 2 0.725 0.0457735 0.5
221 2 0.75 9.13643e-05 0.5
222 2 0.775 0.0457735 0.5
223 2 0.8 9.13643e-05 0.5
224 2 0.825 0.0457735 0.5
225 2 0.85 9.13643e-05 0.5
226 2 0.875 0.0457735 0.5
227 2 0.9 9.13643e-05 0.5
228 2 0.925 0.0457735 0.5
229 2 0.95 9.13643e-05 0.5
230 2 0.975 0.0457735 0.5
231 2 0.5 0.0914557 0.5
233 2 0.55 0.0914557 0.5
232 1 0.52299 0.136559 0.5
235 2 0.6 0.0914557 0.5
234 1 0.572413 0.136224 0.5
236 1 0.622375 0.136881 0.5
237 2 0.65 0.0914557 0.5
238 1 0.672548 0.136246 0.5
239 2 0.7 0.0914557 0.5
240 1 0.723239 0.135224 0.5
241 2 0.75 0.0914557 0.5
243 2 0.8 0.0914557 0.5
242 1 0.775251 0.135436 0.5
245 2 0.85 0.0914557 0.5
244 1 0.826111 0.136252 0.5
246 1 0.875767 0.136823 0.5
247 2 0.9 0.0914557 0.5
248 1 0.925997 0.136394 0.5
249 2 0.95 0.0914557 0.5
250 1 0.976048 0.136155 0.5
253 1 0.547526 0.180507 0.5
330 1 0.972002 0.495941 0.5
255 1 0.595881 0.181914 0.5
257 1 0.647972 0.182002 0.5
259 1 0.697984 0.183074 0.5
261 1 0.748455 0.180637 0.5
263 1 0.798315 0.179787 0.5
265 1 0.849489 0.180258 0.5
267 1 0.900461 0.179819 0.5
269 1 0.95203 0.180599 0.5
252 1 0.525774 0.227011 0.5
273 1 0.546976 0.277107 0.5
254 1 0.574719 0.227878 0.5
275 1 0.593782 0.274933 0.5
256 1 0.622124 0.225894 0.5
258 1 0.67178 0.227851 0.5
277 1 0.64391 0.274367 0.5
260 1 0.721498 0.228808 0.5
279 1 0.693739 0.273611 0.5
281 1 0.750426 0.269096 0.5
262 1 0.77385 0.225783 0.5
283 1 0.800539 0.267654 0.5
264 1 0.824383 0.223104 0.5
285 1 0.850736 0.26617 0.5
266 1 0.876332 0.223442 0.5
268 1 0.926109 0.223448 0.5
287 1 0.900931 0.267091 0.5
270 1 0.975381 0.224722 0.5
289 1 0.950002 0.267343 0.5
101 1 0.998865 0.452052 0.5
272 1 0.516844 0.318967 0.5
274 1 0.569531 0.321882 0.5
276 1 0.618095 0.320266 0.5
278 1 0.670343 0.320959 0.5
280 1 0.718804 0.315927 0.5
282 1 0.775891 0.311721 0.5
301 1 0.75376 0.35278 0.5
303 1 0.80315 0.354069 0.5
284 1 0.827925 0.310806 0.5
305 1 0.853849 0.355133 0.5
286 1 0.878053 0.311146 0.5
288 1 0.927448 0.312525 0.5
290 1 0.976325 0.313804 0.5
293 1 0.541266 0.363596 0.5
294 1 0.563982 0.411055 0.5
292 1 0.515697 0.409268 0.5
295 1 0.591011 0.36551 0.5
296 1 0.612863 0.413227 0.5
297 1 0.639765 0.365538 0.5
299 1 0.690652 0.368704 0.5
298 1 0.660397 0.413444 0.5
300 1 0.732506 0.396094 0.5
319 1 0.70337 0.433927 0.5
302 1 0.780886 0.399544 0.5
304 1 0.828135 0.398135 0.5
306 1 0.878908 0.400695 0.5
307 1 0.902749 0.355761 0.5
308 1 0.927086 0.401319 0.5
310 1 0.972961 0.403957 0.5
309 1 0.950825 0.357026 0.5
329 1 0.949578 0.448825 0.5
41 1 0.999049 0.181464 0.5
313 1 0.53268 0.45697 0.5
81 1 0.998805 0.360114 0.5
315 1 0.582384 0.462016 0.5
317 1 0.632342 0.460848 0.5
318 1 0.678146 0.474776 0.5
320 1 0.72783 0.480823 0.5
321 1 0.754085 0.439972 0.5
323 1 0.80413 0.443118 0.5
322 1 0.77754 0.483217 0.5
324 1 0.826473 0.486273 0.5
325 1 0.854311 0.443924 0.5
326 1 0.877066 0.48906 0.5
327 1 0.901779 0.445377 0.5
328 1 0.922608 0.489802 0.5
61 1 0.999683 0.269511 0.5
335 1 0.523462 0.550722 0.5
336 1 0.570183 0.554037 0.5
316 1 0.601569 0.506919 0.5
357 1 0.620459 0.557103 0.5
337 1 0.648543 0.516561 0.5
338 1 0.671681 0.563239 0.5
339 1 0.700602 0.520303 0.5
341 1 0.749386 0.525023 0.5
340 1 0.722551 0.565362 0.5
343 1 0.801557 0.527705 0.5
342 1 0.77282 0.569437 0.5
345 1 0.851374 0.531763 0.5
347 1 0.89917 0.534355 0.5
349 1 0.947059 0.538754 0.5
121 1 0.994507 0.545117 0.5
355 1 0.541547 0.59983 0.5
354 1 0.511081 0.636549 0.5
356 1 0.593562 0.60222 0.5
375 1 0.56163 0.650021 0.5
377 1 0.614611 0.649786 0.5
358 1 0.641477 0.605469 0.5
359 1 0.696237 0.607042 0.5
361 1 0.7471 0.611301 0.5
363 1 0.798422 0.617409 0.5
344 1 0.821632 0.574483 0.5
346 1 0.872061 0.579272 0.5
365 1 0.845998 0.621985 0.5
348 1 0.920539 0.581697 0.5
367 1 0.897682 0.627536 0.5
369 1 0.945759 0.630826 0.5
350 1 0.972678 0.58935 0.5
122 1 0.997025 0.639397 0.5
374 1 0.527338 0.693884 0.5
376 1 0.588984 0.692289 0.5
378 1 0.643886 0.691237 0.5
379 1 0.671738 0.649192 0.5
380 1 0.693306 0.695624 0.5
360 1 0.72001 0.653706 0.5
381 1 0.741856 0.699028 0.5
362 1 0.768144 0.65833 0.5
364 1 0.820218 0.663692 0.5
383 1 0.792029 0.705489 0.5
366 1 0.869919 0.667629 0.5
385 1 0.840776 0.709775 0.5
368 1 0.920879 0.672431 0.5
141 1 0.969946 0.679858 0.5
395 1 0.57374 0.741109 0.5
394 1 0.527868 0.744806 0.5
397 1 0.619668 0.733878 0.5
396 1 0.595133 0.786377 0.5
399 1 0.666138 0.73761 0.5
414 1 0.640362 0.780485 0.5
401 1 0.714333 0.74044 0.5
382 1 0.761889 0.745967 0.5
384 1 0.810226 0.754305 0.5
386 1 0.859434 0.75754 0.5
387 1 0.890877 0.71611 0.5
389 1 0.909326 0.76273 0.5
370 1 0.940072 0.720261 0.5
202 1 0.981463 0.954248 0.5
142 1 0.99241 0.727794 0.5
161 1 0.960342 0.76943 0.5
413 1 0.547352 0.790488 0.5
398 1 0.687447 0.784477 0.5
400 1 0.733369 0.789755 0.5
415 1 0.701696 0.834731 0.5
403 1 0.781723 0.795459 0.5
402 1 0.751413 0.840267 0.5
404 1 0.798289 0.844715 0.5
405 1 0.832365 0.799392 0.5
388 1 0.878784 0.802272 0.5
407 1 0.849728 0.845898 0.5
390 1 0.928405 0.809953 0.5
409 1 0.899057 0.851993 0.5
162 1 0.979464 0.816738 0.5
416 1 0.724728 0.881854 0.5
417 1 0.771656 0.890647 0.5
406 1 0.81983 0.892554 0.5
408 1 0.87022 0.892699 0.5
410 1 0.917893 0.899364 0.5
182 1 0.966302 0.907357 0.5
181 1 0.948988 0.859491 0.5
183 1 0.996341 0.864202 0.5
418 1 0.793896 0.935841 0.5
419 1 0.840924 0.940094 0.5
201 1 0.935305 0.951276 0.5
420 1 0.888362 0.945176 0.5
314 1 0.552293 0.503509 0.5
312 1 0.505111 0.499941 0.5
