ITEM: TIMESTEP
43000
ITEM: NUMBER OF ATOMS
420
ITEM: BOX BOUNDS pp ss pp
0.0000000000000000e+00 2.2653923264628304e+01
-1.9618873042551413e-03 2.0700719116474406e+01
-2.8317404080785380e-01 2.8317404080785380e-01
ITEM: ATOMS id type xs ys zs
1 2 0 9.47649e-05 0.5
2 2 0.025 0.0474772 0.5
3 2 0.05 9.47649e-05 0.5
4 2 0.075 0.0474772 0.5
5 2 0.1 9.47649e-05 0.5
6 2 0.125 0.0474772 0.5
7 2 0.15 9.47649e-05 0.5
8 2 0.175 0.0474772 0.5
9 2 0.2 9.47649e-05 0.5
10 2 0.225 0.0474772 0.5
11 2 0.25 9.47649e-05 0.5
12 2 0.275 0.0474772 0.5
13 2 0.3 9.47649e-05 0.5
14 2 0.325 0.0474772 0.5
15 2 0.35 9.47649e-05 0.5
16 2 0.375 0.0474772 0.5
17 2 0.4 9.47649e-05 0.5
18 2 0.425 0.0474772 0.5
19 2 0.45 9.47649e-05 0.5
20 2 0.475 0.0474772 0.5
21 2 0 0.0948597 0.5
23 2 0.05 0.0948597 0.5
22 1 0.0247246 0.141018 0.5
25 2 0.1 0.0948597 0.5
24 1 0.0749678 0.143622 0.5
26 1 0.125134 0.144402 0.5
27 2 0.15 0.0948597 0.5
28 1 0.175486 0.141269 0.5
29 2 0.2 0.0948597 0.5
30 1 0.223361 0.142993 0.5
31 2 0.25 0.0948597 0.5
33 2 0.3 0.0948597 0.5
35 2 0.35 0.0948597 0.5
34 1 0.325398 0.141317 0.5
36 1 0.376553 0.141635 0.5
37 2 0.4 0.0948597 0.5
38 1 0.425014 0.140088 0.5
39 2 0.45 0.0948597 0.5
40 1 0.475104 0.140891 0.5
43 1 0.0481228 0.187837 0.5
45 1 0.0983264 0.190761 0.5
47 1 0.147923 0.19079 0.5
49 1 0.199457 0.191746 0.5
32 1 0.272732 0.141684 0.5
51 1 0.247076 0.189169 0.5
53 1 0.295931 0.185777 0.5
55 1 0.350743 0.187721 0.5
57 1 0.399511 0.189965 0.5
59 1 0.449461 0.187753 0.5
42 1 0.0245054 0.237143 0.5
63 1 0.0491787 0.286764 0.5
44 1 0.0736475 0.236164 0.5
65 1 0.099577 0.282982 0.5
46 1 0.124074 0.236154 0.5
48 1 0.174228 0.236642 0.5
50 1 0.223437 0.237276 0.5
69 1 0.199346 0.284001 0.5
52 1 0.27441 0.237229 0.5
71 1 0.248339 0.283355 0.5
73 1 0.299775 0.285329 0.5
54 1 0.323315 0.236463 0.5
56 1 0.37462 0.236296 0.5
75 1 0.349066 0.282874 0.5
58 1 0.426012 0.236736 0.5
77 1 0.401605 0.281337 0.5
60 1 0.475798 0.236646 0.5
79 1 0.451076 0.282907 0.5
62 1 0.0248371 0.331772 0.5
64 1 0.074002 0.331885 0.5
67 1 0.149741 0.281927 0.5
66 1 0.125026 0.331599 0.5
68 1 0.174264 0.329807 0.5
70 1 0.222169 0.332883 0.5
72 1 0.271325 0.331359 0.5
74 1 0.32125 0.331169 0.5
76 1 0.377074 0.326687 0.5
78 1 0.423854 0.32859 0.5
80 1 0.475182 0.330345 0.5
83 1 0.0510811 0.377506 0.5
82 1 0.0269808 0.424131 0.5
117 1 0.401639 0.468382 0.5
85 1 0.0985801 0.377025 0.5
84 1 0.0756327 0.42552 0.5
86 1 0.125298 0.422638 0.5
87 1 0.148125 0.376971 0.5
88 1 0.173218 0.427657 0.5
89 1 0.199074 0.379723 0.5
90 1 0.223359 0.428098 0.5
91 1 0.249606 0.378245 0.5
93 1 0.299821 0.378483 0.5
92 1 0.275327 0.426133 0.5
94 1 0.325794 0.424981 0.5
95 1 0.349178 0.377102 0.5
96 1 0.376023 0.422028 0.5
98 1 0.426276 0.420754 0.5
97 1 0.39909 0.375539 0.5
100 1 0.473796 0.420647 0.5
99 1 0.450547 0.373017 0.5
103 1 0.050771 0.471748 0.5
119 1 0.448695 0.469767 0.5
107 1 0.102173 0.472204 0.5
109 1 0.150429 0.473483 0.5
111 1 0.200068 0.473175 0.5
112 1 0.249907 0.473242 0.5
113 1 0.302098 0.472655 0.5
115 1 0.35011 0.468443 0.5
61 1 0.00105395 0.284633 0.5
311 1 0.498292 0.471932 0.5
81 1 0.00152726 0.378291 0.5
101 1 0.000632947 0.476253 0.5
251 1 0.500125 0.190155 0.5
102 1 0.027333 0.519099 0.5
104 1 0.0521933 0.56691 0.5
207 1 0.277648 0.997869 0.5
105 1 0.0771649 0.521019 0.5
106 1 0.100334 0.566706 0.5
108 1 0.124632 0.51736 0.5
110 1 0.176548 0.519081 0.5
129 1 0.150016 0.565765 0.5
133 1 0.223777 0.520453 0.5
131 1 0.200019 0.567726 0.5
135 1 0.274484 0.518571 0.5
134 1 0.250708 0.563655 0.5
136 1 0.300612 0.567181 0.5
114 1 0.32213 0.521067 0.5
137 1 0.349157 0.566891 0.5
116 1 0.373959 0.517368 0.5
139 1 0.398387 0.563095 0.5
118 1 0.421734 0.517488 0.5
120 1 0.472285 0.517245 0.5
331 1 0.449468 0.562117 0.5
123 1 0.0271597 0.612597 0.5
125 1 0.0768292 0.611972 0.5
127 1 0.125194 0.615392 0.5
130 1 0.174328 0.613213 0.5
132 1 0.225831 0.612779 0.5
155 1 0.273939 0.611041 0.5
157 1 0.323198 0.612182 0.5
138 1 0.375983 0.610855 0.5
140 1 0.423214 0.61058 0.5
332 1 0.473752 0.612903 0.5
124 1 0.0506551 0.660395 0.5
143 1 0.023017 0.708873 0.5
208 1 0.329353 0.996193 0.5
126 1 0.101532 0.662623 0.5
145 1 0.0748229 0.709486 0.5
128 1 0.150081 0.659216 0.5
147 1 0.124362 0.708228 0.5
149 1 0.175007 0.705642 0.5
151 1 0.200298 0.659632 0.5
152 1 0.223258 0.707363 0.5
153 1 0.24954 0.660987 0.5
156 1 0.297 0.659261 0.5
154 1 0.27343 0.709352 0.5
158 1 0.346034 0.659535 0.5
177 1 0.321265 0.705603 0.5
179 1 0.371836 0.706487 0.5
159 1 0.39688 0.65951 0.5
160 1 0.420982 0.704978 0.5
351 1 0.446504 0.659718 0.5
352 1 0.470608 0.706977 0.5
144 1 0.0472986 0.756301 0.5
209 1 0.35353 0.948578 0.5
146 1 0.099871 0.754462 0.5
148 1 0.14986 0.753745 0.5
150 1 0.199054 0.754591 0.5
173 1 0.247531 0.754989 0.5
175 1 0.296278 0.755609 0.5
178 1 0.344992 0.751233 0.5
180 1 0.394385 0.751395 0.5
371 1 0.44655 0.750744 0.5
163 1 0.0265272 0.807948 0.5
164 1 0.050491 0.853361 0.5
192 1 0.251139 0.945434 0.5
165 1 0.0759462 0.801676 0.5
166 1 0.0989958 0.847701 0.5
167 1 0.127106 0.797965 0.5
169 1 0.176397 0.802795 0.5
168 1 0.148404 0.851592 0.5
171 1 0.22427 0.805626 0.5
170 1 0.201327 0.851575 0.5
172 1 0.25107 0.85059 0.5
174 1 0.2768 0.805818 0.5
195 1 0.300754 0.851882 0.5
176 1 0.323951 0.801232 0.5
197 1 0.349375 0.845773 0.5
199 1 0.372478 0.798296 0.5
391 1 0.421118 0.799087 0.5
210 1 0.39526 0.851429 0.5
411 1 0.470675 0.799849 0.5
200 1 0.446783 0.84806 0.5
183 1 0.0217027 0.896899 0.5
185 1 0.0723411 0.897939 0.5
187 1 0.121294 0.897769 0.5
189 1 0.174009 0.896128 0.5
191 1 0.225508 0.899422 0.5
193 1 0.274506 0.898351 0.5
196 1 0.321577 0.899028 0.5
198 1 0.371224 0.895655 0.5
184 1 0.0496836 0.944444 0.5
202 1 0.0229861 0.991904 0.5
392 1 0.497514 0.846773 0.5
203 1 0.0750033 0.993586 0.5
186 1 0.101258 0.946266 0.5
204 1 0.126325 0.992858 0.5
188 1 0.151513 0.945076 0.5
205 1 0.177761 0.991865 0.5
190 1 0.199254 0.945495 0.5
206 1 0.226902 0.994635 0.5
194 1 0.30007 0.948155 0.5
333 1 0.498791 0.5656 0.5
353 1 0.495347 0.658998 0.5
122 1 0.00104339 0.661342 0.5
121 1 0.000357438 0.567776 0.5
211 2 0.5 9.47649e-05 0.5
212 2 0.525 0.0474772 0.5
213 2 0.55 9.47649e-05 0.5
214 2 0.575 0.0474772 0.5
215 2 0.6 9.47649e-05 0.5
216 2 0.625 0.0474772 0.5
217 2 0.65 9.47649e-05 0.5
218 2 0.675 0.0474772 0.5
219 2 0.7 9.47649e-05 0.5
220 2 0.725 0.0474772 0.5
221 2 0.75 9.47649e-05 0.5
222 2 0.775 0.0474772 0.5
223 2 0.8 9.47649e-05 0.5
224 2 0.825 0.0474772 0.5
225 2 0.85 9.47649e-05 0.5
226 2 0.875 0.0474772 0.5
227 2 0.9 9.47649e-05 0.5
228 2 0.925 0.0474772 0.5
229 2 0.95 9.47649e-05 0.5
230 2 0.975 0.0474772 0.5
231 2 0.5 0.0948597 0.5
233 2 0.55 0.0948597 0.5
232 1 0.52421 0.144598 0.5
235 2 0.6 0.0948597 0.5
234 1 0.573955 0.143256 0.5
237 2 0.65 0.0948597 0.5
238 1 0.676311 0.140061 0.5
239 2 0.7 0.0948597 0.5
240 1 0.726904 0.145433 0.5
241 2 0.75 0.0948597 0.5
243 2 0.8 0.0948597 0.5
242 1 0.774942 0.141467 0.5
245 2 0.85 0.0948597 0.5
244 1 0.826178 0.143038 0.5
247 2 0.9 0.0948597 0.5
248 1 0.924043 0.141505 0.5
246 1 0.876053 0.143349 0.5
249 2 0.95 0.0948597 0.5
250 1 0.973122 0.142212 0.5
253 1 0.548647 0.190462 0.5
329 1 0.949461 0.476546 0.5
255 1 0.598543 0.190181 0.5
236 1 0.625224 0.142322 0.5
257 1 0.648201 0.188798 0.5
259 1 0.698426 0.189716 0.5
261 1 0.747671 0.1921 0.5
263 1 0.798522 0.18864 0.5
265 1 0.850065 0.189151 0.5
267 1 0.900867 0.18934 0.5
269 1 0.951876 0.189605 0.5
327 1 0.899706 0.470703 0.5
252 1 0.527472 0.236359 0.5
273 1 0.550105 0.28124 0.5
323 1 0.799818 0.471939 0.5
254 1 0.577151 0.238472 0.5
275 1 0.60031 0.28645 0.5
256 1 0.624388 0.237181 0.5
258 1 0.67356 0.233877 0.5
277 1 0.649323 0.285418 0.5
260 1 0.725962 0.235843 0.5
279 1 0.699517 0.282404 0.5
281 1 0.749177 0.282931 0.5
262 1 0.779073 0.238345 0.5
283 1 0.801856 0.285226 0.5
264 1 0.827056 0.237023 0.5
285 1 0.850761 0.287349 0.5
266 1 0.874725 0.235841 0.5
268 1 0.925564 0.234452 0.5
287 1 0.901356 0.282585 0.5
270 1 0.975766 0.236827 0.5
289 1 0.950609 0.283033 0.5
325 1 0.851218 0.471749 0.5
272 1 0.524513 0.331369 0.5
274 1 0.573518 0.330276 0.5
276 1 0.624502 0.333781 0.5
278 1 0.675034 0.329245 0.5
280 1 0.724081 0.329636 0.5
282 1 0.774348 0.331309 0.5
284 1 0.823437 0.3325 0.5
286 1 0.874253 0.331233 0.5
288 1 0.927095 0.331527 0.5
290 1 0.975623 0.331358 0.5
293 1 0.550223 0.378388 0.5
292 1 0.522497 0.424165 0.5
319 1 0.697932 0.470314 0.5
294 1 0.571855 0.425828 0.5
295 1 0.597319 0.379127 0.5
297 1 0.646534 0.378677 0.5
296 1 0.6227 0.425925 0.5
298 1 0.673895 0.423679 0.5
299 1 0.699564 0.37705 0.5
301 1 0.748331 0.377373 0.5
300 1 0.723792 0.423585 0.5
303 1 0.798664 0.375005 0.5
302 1 0.774601 0.427826 0.5
305 1 0.850133 0.378656 0.5
304 1 0.821086 0.424519 0.5
307 1 0.899742 0.377368 0.5
308 1 0.923026 0.426592 0.5
306 1 0.874217 0.426075 0.5
310 1 0.97336 0.429577 0.5
309 1 0.951527 0.377518 0.5
321 1 0.748473 0.473061 0.5
313 1 0.546518 0.470532 0.5
315 1 0.597318 0.472752 0.5
317 1 0.647628 0.47422 0.5
41 1 0.999839 0.188282 0.5
291 1 0.50178 0.378073 0.5
271 1 0.500771 0.284296 0.5
312 1 0.523528 0.520903 0.5
335 1 0.550631 0.569527 0.5
201 1 0.972832 0.994468 0.5
314 1 0.574957 0.518628 0.5
336 1 0.602606 0.566598 0.5
316 1 0.62567 0.519037 0.5
318 1 0.674032 0.517834 0.5
337 1 0.651621 0.565729 0.5
320 1 0.721179 0.516906 0.5
339 1 0.697565 0.566062 0.5
341 1 0.745243 0.563538 0.5
322 1 0.773234 0.519677 0.5
343 1 0.795165 0.563222 0.5
324 1 0.824895 0.516338 0.5
345 1 0.847225 0.56366 0.5
326 1 0.874034 0.517258 0.5
328 1 0.924189 0.520194 0.5
347 1 0.898216 0.564492 0.5
349 1 0.948514 0.567176 0.5
330 1 0.974863 0.525191 0.5
334 1 0.525184 0.612225 0.5
355 1 0.575044 0.613075 0.5
357 1 0.625205 0.615034 0.5
338 1 0.674734 0.611307 0.5
340 1 0.72454 0.61091 0.5
342 1 0.773579 0.613871 0.5
344 1 0.825734 0.61281 0.5
346 1 0.875885 0.614861 0.5
348 1 0.927413 0.614364 0.5
350 1 0.977724 0.615811 0.5
419 1 0.875764 0.996015 0.5
373 1 0.52088 0.707271 0.5
354 1 0.54642 0.660215 0.5
356 1 0.596783 0.66091 0.5
375 1 0.574049 0.705446 0.5
377 1 0.622382 0.705779 0.5
358 1 0.650325 0.662813 0.5
379 1 0.673112 0.709986 0.5
359 1 0.699864 0.658153 0.5
360 1 0.722968 0.708216 0.5
361 1 0.749919 0.662219 0.5
363 1 0.801825 0.660732 0.5
362 1 0.776252 0.708939 0.5
365 1 0.851485 0.664305 0.5
364 1 0.823822 0.708914 0.5
366 1 0.874594 0.709461 0.5
367 1 0.900768 0.660209 0.5
368 1 0.926416 0.705376 0.5
369 1 0.95115 0.659251 0.5
141 1 0.97538 0.708089 0.5
374 1 0.548947 0.754922 0.5
420 1 0.925205 0.994711 0.5
376 1 0.59861 0.753645 0.5
378 1 0.647098 0.754925 0.5
380 1 0.698286 0.754376 0.5
381 1 0.750759 0.754531 0.5
383 1 0.799747 0.75824 0.5
385 1 0.850098 0.757105 0.5
387 1 0.901224 0.756616 0.5
370 1 0.948287 0.755404 0.5
393 1 0.52694 0.804121 0.5
412 1 0.546044 0.85126 0.5
410 1 0.950293 0.946062 0.5
394 1 0.573447 0.803803 0.5
413 1 0.595778 0.848679 0.5
395 1 0.62096 0.803637 0.5
397 1 0.672694 0.799655 0.5
396 1 0.647331 0.848592 0.5
401 1 0.728233 0.803101 0.5
399 1 0.697311 0.84643 0.5
400 1 0.747692 0.849379 0.5
382 1 0.773962 0.803643 0.5
403 1 0.79703 0.849884 0.5
384 1 0.826415 0.805037 0.5
405 1 0.85009 0.852518 0.5
386 1 0.874902 0.804664 0.5
389 1 0.923802 0.808731 0.5
388 1 0.900293 0.854502 0.5
161 1 0.971638 0.805969 0.5
390 1 0.952614 0.852688 0.5
414 1 0.674706 0.89419 0.5
398 1 0.724302 0.89761 0.5
402 1 0.774311 0.897415 0.5
404 1 0.822025 0.899104 0.5
407 1 0.872661 0.902307 0.5
409 1 0.923281 0.900034 0.5
181 1 0.972296 0.899611 0.5
415 1 0.751673 0.942787 0.5
417 1 0.798946 0.948841 0.5
416 1 0.776831 0.993161 0.5
406 1 0.849526 0.949729 0.5
418 1 0.825766 0.999809 0.5
408 1 0.900342 0.948476 0.5
142 1 0.9978 0.756086 0.5
372 1 0.501199 0.752686 0.5
162 1 0.998367 0.851724 0.5
182 1 0.997641 0.945173 0.5
