ITEM: TIMESTEP
36500
ITEM: NUMBER OF ATOMS
420
ITEM: BOX BOUNDS pp ss pp
0.0000000000000000e+00 2.2653923264628304e+01
-1.9618873042551413e-03 2.0634191669854165e+01
-2.8317404080785380e-01 2.8317404080785380e-01
ITEM: ATOMS id type xs ys zs
1 2 0 9.50704e-05 0.5
2 2 0.025 0.0476303 0.5
3 2 0.05 9.50704e-05 0.5
4 2 0.075 0.0476303 0.5
5 2 0.1 9.50704e-05 0.5
6 2 0.125 0.0476303 0.5
7 2 0.15 9.50704e-05 0.5
8 2 0.175 0.0476303 0.5
9 2 0.2 9.50704e-05 0.5
10 2 0.225 0.0476303 0.5
11 2 0.25 9.50704e-05 0.5
12 2 0.275 0.0476303 0.5
13 2 0.3 9.50704e-05 0.5
14 2 0.325 0.0476303 0.5
15 2 0.35 9.50704e-05 0.5
16 2 0.375 0.0476303 0.5
17 2 0.4 9.50704e-05 0.5
18 2 0.425 0.0476303 0.5
19 2 0.45 9.50704e-05 0.5
20 2 0.475 0.0476303 0.5
21 2 0 0.0951655 0.5
23 2 0.05 0.0951655 0.5
25 2 0.1 0.0951655 0.5
27 2 0.15 0.0951655 0.5
29 2 0.2 0.0951655 0.5
30 1 0.224678 0.139614 0.5
31 2 0.25 0.0951655 0.5
33 2 0.3 0.0951655 0.5
35 2 0.35 0.0951655 0.5
34 1 0.326809 0.140243 0.5
36 1 0.375905 0.141231 0.5
37 2 0.4 0.0951655 0.5
39 2 0.45 0.0951655 0.5
40 1 0.47365 0.14157 0.5
22 1 0.025108 0.141881 0.5
43 1 0.0541237 0.18818 0.5
24 1 0.0778898 0.142831 0.5
45 1 0.103312 0.189701 0.5
26 1 0.126439 0.143388 0.5
28 1 0.177118 0.143965 0.5
47 1 0.152868 0.188909 0.5
49 1 0.202686 0.18927 0.5
32 1 0.279164 0.14493 0.5
51 1 0.250221 0.186779 0.5
53 1 0.30557 0.190822 0.5
55 1 0.352255 0.189992 0.5
38 1 0.424599 0.140318 0.5
57 1 0.402892 0.188966 0.5
59 1 0.450814 0.192202 0.5
42 1 0.0302119 0.233274 0.5
63 1 0.0557012 0.283437 0.5
44 1 0.080366 0.236492 0.5
65 1 0.104574 0.283566 0.5
46 1 0.129772 0.234844 0.5
48 1 0.178422 0.234185 0.5
50 1 0.229216 0.236477 0.5
69 1 0.203719 0.282507 0.5
71 1 0.253343 0.282752 0.5
52 1 0.279248 0.235398 0.5
73 1 0.305701 0.283065 0.5
54 1 0.327183 0.235509 0.5
75 1 0.355846 0.285892 0.5
56 1 0.377981 0.234864 0.5
58 1 0.428339 0.239693 0.5
77 1 0.404491 0.286285 0.5
60 1 0.474776 0.238649 0.5
62 1 0.0287884 0.328848 0.5
64 1 0.0801812 0.32852 0.5
66 1 0.130028 0.334394 0.5
67 1 0.153202 0.28512 0.5
68 1 0.178495 0.33184 0.5
70 1 0.229423 0.330083 0.5
72 1 0.276471 0.331195 0.5
74 1 0.326808 0.330862 0.5
76 1 0.380073 0.333992 0.5
78 1 0.42942 0.332537 0.5
79 1 0.453321 0.287843 0.5
80 1 0.477995 0.333282 0.5
83 1 0.0543519 0.377453 0.5
82 1 0.0284233 0.42443 0.5
85 1 0.105622 0.377099 0.5
86 1 0.129085 0.426054 0.5
87 1 0.156416 0.381441 0.5
88 1 0.177961 0.429285 0.5
89 1 0.204985 0.379165 0.5
90 1 0.228024 0.428637 0.5
91 1 0.252026 0.378789 0.5
93 1 0.301352 0.377582 0.5
92 1 0.278872 0.425675 0.5
95 1 0.353929 0.377836 0.5
94 1 0.328753 0.424743 0.5
96 1 0.379804 0.428011 0.5
97 1 0.403385 0.37806 0.5
98 1 0.428382 0.426556 0.5
99 1 0.452042 0.378897 0.5
100 1 0.476402 0.425436 0.5
103 1 0.0546602 0.474461 0.5
119 1 0.451299 0.474699 0.5
84 1 0.0783113 0.425 0.5
107 1 0.105629 0.473438 0.5
109 1 0.155066 0.476062 0.5
111 1 0.203308 0.476896 0.5
112 1 0.25291 0.475847 0.5
113 1 0.300614 0.47193 0.5
115 1 0.354054 0.472603 0.5
117 1 0.40269 0.474654 0.5
101 1 0.00697662 0.474392 0.5
61 1 0.00262914 0.284448 0.5
81 1 0.00572019 0.378507 0.5
41 1 0.00256511 0.188964 0.5
251 1 0.498701 0.188975 0.5
104 1 0.0534933 0.570229 0.5
102 1 0.0285137 0.522816 0.5
121 1 0.00251358 0.566797 0.5
106 1 0.104306 0.570028 0.5
105 1 0.0777968 0.520694 0.5
108 1 0.126986 0.521033 0.5
110 1 0.180697 0.522041 0.5
129 1 0.151976 0.569026 0.5
131 1 0.202631 0.567673 0.5
133 1 0.229674 0.521802 0.5
134 1 0.250786 0.571675 0.5
136 1 0.302341 0.570726 0.5
135 1 0.277621 0.524281 0.5
137 1 0.352701 0.567688 0.5
114 1 0.327065 0.517384 0.5
116 1 0.377021 0.52109 0.5
139 1 0.402174 0.570665 0.5
118 1 0.425608 0.524265 0.5
120 1 0.476089 0.518325 0.5
331 1 0.45501 0.565924 0.5
123 1 0.0280566 0.615333 0.5
125 1 0.0775054 0.616418 0.5
127 1 0.124507 0.617511 0.5
130 1 0.172267 0.616771 0.5
132 1 0.22401 0.616445 0.5
155 1 0.278152 0.617746 0.5
157 1 0.328676 0.616437 0.5
138 1 0.380499 0.616948 0.5
140 1 0.429387 0.615604 0.5
332 1 0.477284 0.611846 0.5
124 1 0.0514052 0.663154 0.5
143 1 0.0245337 0.71006 0.5
122 1 0.00436384 0.661898 0.5
145 1 0.0781229 0.710038 0.5
126 1 0.102356 0.665455 0.5
147 1 0.127065 0.713043 0.5
128 1 0.151271 0.665248 0.5
149 1 0.176298 0.71012 0.5
151 1 0.201696 0.662884 0.5
152 1 0.227604 0.707978 0.5
153 1 0.251758 0.662716 0.5
156 1 0.30332 0.663695 0.5
154 1 0.276896 0.708048 0.5
158 1 0.351597 0.663256 0.5
177 1 0.326764 0.708349 0.5
179 1 0.379244 0.709142 0.5
159 1 0.404962 0.663449 0.5
160 1 0.427511 0.713418 0.5
351 1 0.452371 0.662858 0.5
352 1 0.479028 0.710247 0.5
144 1 0.0515247 0.755752 0.5
142 1 0.00121816 0.758145 0.5
146 1 0.0993298 0.761222 0.5
148 1 0.152563 0.756605 0.5
150 1 0.203936 0.755889 0.5
173 1 0.252357 0.759556 0.5
175 1 0.303251 0.755515 0.5
178 1 0.35363 0.755656 0.5
180 1 0.403634 0.757628 0.5
371 1 0.454351 0.759679 0.5
163 1 0.0264486 0.804613 0.5
164 1 0.0491216 0.8546 0.5
162 1 0.00248477 0.851931 0.5
165 1 0.0748247 0.806135 0.5
166 1 0.101982 0.850492 0.5
167 1 0.127668 0.80391 0.5
168 1 0.150905 0.849313 0.5
169 1 0.176651 0.801602 0.5
171 1 0.225783 0.803991 0.5
172 1 0.250829 0.851469 0.5
170 1 0.20233 0.848009 0.5
174 1 0.277316 0.808078 0.5
195 1 0.303846 0.853113 0.5
176 1 0.328048 0.80356 0.5
197 1 0.354397 0.850465 0.5
199 1 0.37774 0.803071 0.5
391 1 0.426067 0.806338 0.5
210 1 0.404062 0.855435 0.5
411 1 0.476512 0.80551 0.5
200 1 0.455417 0.852999 0.5
208 1 0.323858 0.997618 0.5
183 1 0.0289084 0.902913 0.5
185 1 0.0785675 0.897608 0.5
187 1 0.124698 0.898391 0.5
189 1 0.175998 0.893807 0.5
191 1 0.222572 0.896476 0.5
193 1 0.275721 0.897572 0.5
196 1 0.323652 0.904006 0.5
198 1 0.37062 0.900803 0.5
184 1 0.0571854 0.94423 0.5
202 1 0.0319944 0.990861 0.5
209 1 0.348983 0.949905 0.5
203 1 0.0804127 0.991218 0.5
186 1 0.10521 0.947499 0.5
204 1 0.126508 0.994251 0.5
188 1 0.15338 0.942525 0.5
205 1 0.175411 0.99282 0.5
190 1 0.200784 0.945653 0.5
206 1 0.224098 0.992312 0.5
194 1 0.297221 0.949382 0.5
192 1 0.247912 0.946846 0.5
207 1 0.271331 0.994749 0.5
182 1 0.00390979 0.945608 0.5
211 2 0.5 9.50704e-05 0.5
212 2 0.525 0.0476303 0.5
213 2 0.55 9.50704e-05 0.5
214 2 0.575 0.0476303 0.5
215 2 0.6 9.50704e-05 0.5
216 2 0.625 0.0476303 0.5
217 2 0.65 9.50704e-05 0.5
218 2 0.675 0.0476303 0.5
219 2 0.7 9.50704e-05 0.5
220 2 0.725 0.0476303 0.5
221 2 0.75 9.50704e-05 0.5
222 2 0.775 0.0476303 0.5
223 2 0.8 9.50704e-05 0.5
224 2 0.825 0.0476303 0.5
225 2 0.85 9.50704e-05 0.5
226 2 0.875 0.0476303 0.5
227 2 0.9 9.50704e-05 0.5
228 2 0.925 0.0476303 0.5
229 2 0.95 9.50704e-05 0.5
230 2 0.975 0.0476303 0.5
231 2 0.5 0.0951655 0.5
233 2 0.55 0.0951655 0.5
232 1 0.523834 0.141049 0.5
235 2 0.6 0.0951655 0.5
237 2 0.65 0.0951655 0.5
239 2 0.7 0.0951655 0.5
241 2 0.75 0.0951655 0.5
243 2 0.8 0.0951655 0.5
245 2 0.85 0.0951655 0.5
244 1 0.825622 0.142431 0.5
247 2 0.9 0.0951655 0.5
249 2 0.95 0.0951655 0.5
250 1 0.976014 0.142771 0.5
253 1 0.548822 0.188709 0.5
291 1 0.502856 0.37987 0.5
234 1 0.574498 0.139393 0.5
255 1 0.599374 0.19023 0.5
236 1 0.622653 0.140806 0.5
238 1 0.676593 0.141198 0.5
257 1 0.647332 0.187136 0.5
240 1 0.726829 0.142202 0.5
259 1 0.700839 0.188617 0.5
261 1 0.751972 0.188894 0.5
242 1 0.776673 0.1443 0.5
263 1 0.802396 0.191142 0.5
246 1 0.875293 0.144291 0.5
265 1 0.853275 0.191597 0.5
248 1 0.926626 0.141255 0.5
267 1 0.903011 0.192529 0.5
269 1 0.952972 0.187945 0.5
310 1 0.979559 0.425385 0.5
252 1 0.527069 0.233832 0.5
254 1 0.573903 0.236203 0.5
256 1 0.624597 0.236124 0.5
258 1 0.674821 0.233644 0.5
260 1 0.724248 0.236864 0.5
262 1 0.776942 0.236328 0.5
264 1 0.826905 0.23698 0.5
285 1 0.85546 0.284906 0.5
266 1 0.87862 0.236347 0.5
268 1 0.92892 0.237297 0.5
287 1 0.905663 0.287373 0.5
270 1 0.97889 0.236042 0.5
325 1 0.855151 0.470005 0.5
273 1 0.553257 0.283476 0.5
272 1 0.527026 0.332816 0.5
271 1 0.50258 0.284491 0.5
275 1 0.599789 0.285068 0.5
274 1 0.577478 0.33338 0.5
277 1 0.653613 0.285097 0.5
276 1 0.628211 0.332857 0.5
278 1 0.68067 0.332156 0.5
279 1 0.70144 0.283149 0.5
280 1 0.729887 0.326637 0.5
281 1 0.753198 0.28201 0.5
283 1 0.802596 0.283687 0.5
282 1 0.779659 0.332117 0.5
284 1 0.829354 0.330062 0.5
286 1 0.88117 0.335818 0.5
288 1 0.932926 0.331564 0.5
289 1 0.95389 0.283984 0.5
290 1 0.980312 0.330102 0.5
293 1 0.554736 0.379259 0.5
292 1 0.527544 0.42557 0.5
329 1 0.956929 0.471927 0.5
294 1 0.578776 0.426663 0.5
295 1 0.603487 0.382468 0.5
297 1 0.655582 0.379732 0.5
299 1 0.704563 0.376508 0.5
300 1 0.729126 0.425326 0.5
301 1 0.755967 0.376465 0.5
303 1 0.805429 0.377222 0.5
305 1 0.855108 0.378926 0.5
306 1 0.880507 0.423761 0.5
307 1 0.906299 0.379085 0.5
308 1 0.931375 0.426413 0.5
309 1 0.95641 0.376735 0.5
327 1 0.904859 0.46903 0.5
313 1 0.551558 0.474311 0.5
311 1 0.500757 0.471118 0.5
315 1 0.605189 0.473929 0.5
296 1 0.629085 0.426881 0.5
298 1 0.6788 0.428732 0.5
317 1 0.654758 0.474352 0.5
319 1 0.706833 0.474676 0.5
323 1 0.803171 0.470531 0.5
321 1 0.756025 0.473052 0.5
302 1 0.77883 0.425643 0.5
304 1 0.830056 0.424264 0.5
312 1 0.527824 0.522952 0.5
333 1 0.505399 0.566525 0.5
314 1 0.577951 0.519707 0.5
316 1 0.630097 0.520464 0.5
337 1 0.651142 0.570264 0.5
318 1 0.679663 0.524405 0.5
320 1 0.730862 0.521388 0.5
341 1 0.755866 0.568303 0.5
343 1 0.806652 0.565697 0.5
322 1 0.780865 0.517937 0.5
324 1 0.828868 0.516265 0.5
345 1 0.854653 0.56653 0.5
326 1 0.87809 0.516346 0.5
347 1 0.905338 0.566304 0.5
328 1 0.927088 0.516267 0.5
349 1 0.952847 0.56143 0.5
330 1 0.979647 0.517773 0.5
335 1 0.552092 0.569559 0.5
334 1 0.52752 0.613826 0.5
336 1 0.602447 0.568364 0.5
355 1 0.579082 0.614886 0.5
357 1 0.627918 0.616755 0.5
338 1 0.679835 0.61607 0.5
339 1 0.705093 0.570789 0.5
340 1 0.729762 0.615948 0.5
342 1 0.781082 0.617601 0.5
344 1 0.831398 0.615021 0.5
346 1 0.879867 0.612327 0.5
348 1 0.928122 0.610825 0.5
350 1 0.977713 0.610535 0.5
373 1 0.527763 0.709591 0.5
354 1 0.553228 0.663492 0.5
353 1 0.500185 0.660929 0.5
356 1 0.60509 0.662545 0.5
375 1 0.57942 0.70978 0.5
377 1 0.629772 0.711471 0.5
358 1 0.655288 0.665429 0.5
379 1 0.680538 0.708116 0.5
359 1 0.70567 0.662232 0.5
361 1 0.754835 0.662145 0.5
360 1 0.730772 0.708937 0.5
363 1 0.808382 0.664133 0.5
362 1 0.782841 0.70922 0.5
365 1 0.858047 0.662368 0.5
364 1 0.832529 0.713822 0.5
366 1 0.88086 0.711529 0.5
367 1 0.906131 0.660788 0.5
368 1 0.9283 0.712305 0.5
369 1 0.954009 0.657884 0.5
141 1 0.974847 0.709272 0.5
374 1 0.554614 0.756057 0.5
201 1 0.979123 0.992296 0.5
376 1 0.605607 0.757374 0.5
378 1 0.655711 0.755811 0.5
380 1 0.705829 0.753278 0.5
381 1 0.755733 0.755466 0.5
383 1 0.805113 0.75868 0.5
385 1 0.8542 0.760657 0.5
387 1 0.90202 0.758854 0.5
370 1 0.951691 0.757517 0.5
393 1 0.530056 0.807681 0.5
394 1 0.577765 0.806547 0.5
413 1 0.604036 0.854408 0.5
395 1 0.628966 0.803135 0.5
397 1 0.678807 0.802867 0.5
396 1 0.654633 0.848179 0.5
401 1 0.728998 0.800928 0.5
399 1 0.703667 0.847363 0.5
400 1 0.753907 0.84816 0.5
382 1 0.777847 0.804601 0.5
403 1 0.802529 0.853177 0.5
384 1 0.828719 0.807765 0.5
405 1 0.852718 0.854454 0.5
386 1 0.878508 0.807453 0.5
389 1 0.927076 0.806268 0.5
388 1 0.903758 0.852715 0.5
161 1 0.977331 0.806663 0.5
390 1 0.951254 0.851886 0.5
412 1 0.554134 0.851477 0.5
414 1 0.678309 0.895521 0.5
398 1 0.728742 0.894744 0.5
402 1 0.776588 0.89532 0.5
404 1 0.828169 0.90274 0.5
407 1 0.877678 0.898104 0.5
409 1 0.928563 0.900633 0.5
181 1 0.978131 0.899531 0.5
415 1 0.753798 0.942739 0.5
417 1 0.802367 0.948509 0.5
416 1 0.774482 0.995284 0.5
406 1 0.852973 0.947703 0.5
418 1 0.826973 0.994476 0.5
420 1 0.93052 0.999905 0.5
419 1 0.87914 0.998188 0.5
408 1 0.902568 0.9459 0.5
410 1 0.953101 0.946644 0.5
392 1 0.504535 0.852461 0.5
372 1 0.503518 0.759784 0.5
