ITEM: TIMESTEP
13750
ITEM: NUMBER OF ATOMS
420
ITEM: BOX BOUNDS pp ss pp
0.0000000000000000e+00 2.2653923264628304e+01
-1.9618873042551413e-03 1.9531044504425825e+01
-2.8317404080785380e-01 2.8317404080785380e-01
ITEM: ATOMS id type xs ys zs
1 2 0 0.00010044 0.5
2 2 0.025 0.0503202 0.5
3 2 0.05 0.00010044 0.5
4 2 0.075 0.0503202 0.5
5 2 0.1 0.00010044 0.5
6 2 0.125 0.0503202 0.5
7 2 0.15 0.00010044 0.5
8 2 0.175 0.0503202 0.5
9 2 0.2 0.00010044 0.5
10 2 0.225 0.0503202 0.5
11 2 0.25 0.00010044 0.5
12 2 0.275 0.0503202 0.5
13 2 0.3 0.00010044 0.5
14 2 0.325 0.0503202 0.5
15 2 0.35 0.00010044 0.5
16 2 0.375 0.0503202 0.5
17 2 0.4 0.00010044 0.5
18 2 0.425 0.0503202 0.5
19 2 0.45 0.00010044 0.5
20 2 0.475 0.0503202 0.5
21 2 0 0.10054 0.5
23 2 0.05 0.10054 0.5
22 1 0.0268307 0.14925 0.5
25 2 0.1 0.10054 0.5
24 1 0.0751713 0.147386 0.5
26 1 0.125541 0.145287 0.5
27 2 0.15 0.10054 0.5
28 1 0.174353 0.149497 0.5
29 2 0.2 0.10054 0.5
30 1 0.225454 0.148455 0.5
31 2 0.25 0.10054 0.5
33 2 0.3 0.10054 0.5
32 1 0.277255 0.148991 0.5
35 2 0.35 0.10054 0.5
34 1 0.325017 0.146755 0.5
36 1 0.375471 0.149677 0.5
37 2 0.4 0.10054 0.5
38 1 0.424244 0.151299 0.5
39 2 0.45 0.10054 0.5
40 1 0.473652 0.148136 0.5
43 1 0.0511803 0.198058 0.5
42 1 0.0282388 0.245252 0.5
100 1 0.469911 0.440002 0.5
45 1 0.101233 0.193273 0.5
44 1 0.0773494 0.245436 0.5
46 1 0.125517 0.245173 0.5
47 1 0.149895 0.195576 0.5
48 1 0.173607 0.245106 0.5
49 1 0.199597 0.199069 0.5
50 1 0.226156 0.244311 0.5
51 1 0.25175 0.196511 0.5
53 1 0.301797 0.196103 0.5
52 1 0.277353 0.246802 0.5
55 1 0.351657 0.19561 0.5
56 1 0.374257 0.244001 0.5
54 1 0.326414 0.242888 0.5
57 1 0.401535 0.198736 0.5
58 1 0.427181 0.246126 0.5
59 1 0.451164 0.197551 0.5
60 1 0.475429 0.247933 0.5
98 1 0.421866 0.442776 0.5
63 1 0.0526213 0.295086 0.5
96 1 0.373808 0.440506 0.5
65 1 0.10163 0.292643 0.5
67 1 0.15083 0.296451 0.5
69 1 0.199994 0.290612 0.5
71 1 0.249869 0.291017 0.5
73 1 0.297857 0.295931 0.5
75 1 0.347501 0.291504 0.5
77 1 0.395987 0.291045 0.5
79 1 0.448545 0.294482 0.5
117 1 0.398551 0.489227 0.5
62 1 0.026013 0.344128 0.5
83 1 0.0538278 0.392114 0.5
64 1 0.0768524 0.34257 0.5
85 1 0.103029 0.391353 0.5
66 1 0.126239 0.344053 0.5
68 1 0.177757 0.343181 0.5
87 1 0.149873 0.393483 0.5
70 1 0.226367 0.341345 0.5
89 1 0.198348 0.393268 0.5
91 1 0.250168 0.393575 0.5
72 1 0.276235 0.345519 0.5
93 1 0.299539 0.394447 0.5
74 1 0.323216 0.342638 0.5
95 1 0.348009 0.391838 0.5
76 1 0.371595 0.342715 0.5
78 1 0.422666 0.341185 0.5
97 1 0.396616 0.391436 0.5
80 1 0.4728 0.34493 0.5
99 1 0.444996 0.390363 0.5
119 1 0.448557 0.488641 0.5
103 1 0.050709 0.492558 0.5
82 1 0.0263282 0.444369 0.5
105 1 0.100177 0.490429 0.5
84 1 0.0757646 0.442063 0.5
86 1 0.123559 0.442412 0.5
88 1 0.173098 0.441449 0.5
107 1 0.14922 0.489329 0.5
90 1 0.223447 0.443358 0.5
111 1 0.249157 0.492192 0.5
109 1 0.199995 0.493631 0.5
113 1 0.297088 0.492786 0.5
92 1 0.274394 0.441832 0.5
94 1 0.32282 0.443957 0.5
115 1 0.348388 0.490387 0.5
311 1 0.496423 0.487308 0.5
61 1 0.00359055 0.295322 0.5
251 1 0.499743 0.199047 0.5
81 1 0.00442225 0.393594 0.5
291 1 0.494808 0.392768 0.5
41 1 0.00200401 0.197252 0.5
102 1 0.026249 0.54102 0.5
104 1 0.075605 0.539432 0.5
106 1 0.124099 0.540677 0.5
108 1 0.173718 0.542231 0.5
110 1 0.222799 0.542109 0.5
112 1 0.273403 0.540985 0.5
114 1 0.323279 0.53959 0.5
116 1 0.372591 0.540261 0.5
118 1 0.421993 0.538917 0.5
120 1 0.472509 0.538326 0.5
123 1 0.0475219 0.592745 0.5
122 1 0.0263057 0.645599 0.5
210 1 0.454833 0.937938 0.5
125 1 0.0975039 0.589794 0.5
124 1 0.0748091 0.643034 0.5
126 1 0.121239 0.642199 0.5
127 1 0.145048 0.588059 0.5
128 1 0.171065 0.64222 0.5
129 1 0.194156 0.592634 0.5
130 1 0.224529 0.637777 0.5
131 1 0.248526 0.590167 0.5
133 1 0.298259 0.587743 0.5
132 1 0.271503 0.637643 0.5
135 1 0.346872 0.587843 0.5
134 1 0.321808 0.636681 0.5
136 1 0.370573 0.634978 0.5
137 1 0.397585 0.586429 0.5
138 1 0.422181 0.638295 0.5
139 1 0.448849 0.587442 0.5
140 1 0.471646 0.638372 0.5
351 1 0.496397 0.691207 0.5
143 1 0.048578 0.693852 0.5
142 1 0.0220805 0.743292 0.5
145 1 0.100627 0.694351 0.5
144 1 0.0726472 0.741265 0.5
146 1 0.123274 0.740207 0.5
147 1 0.147647 0.689658 0.5
148 1 0.170132 0.737393 0.5
149 1 0.196896 0.689661 0.5
150 1 0.219487 0.738427 0.5
151 1 0.245289 0.686987 0.5
153 1 0.294826 0.684432 0.5
152 1 0.269952 0.733667 0.5
155 1 0.344127 0.685011 0.5
154 1 0.317497 0.731927 0.5
156 1 0.367827 0.731191 0.5
157 1 0.394913 0.683022 0.5
158 1 0.417989 0.735383 0.5
159 1 0.447144 0.685685 0.5
160 1 0.46777 0.739126 0.5
371 1 0.486274 0.791147 0.5
163 1 0.0467045 0.791176 0.5
208 1 0.332149 0.988329 0.5
165 1 0.0956832 0.788704 0.5
167 1 0.145113 0.79334 0.5
169 1 0.192418 0.784578 0.5
171 1 0.239676 0.789742 0.5
173 1 0.288731 0.785998 0.5
175 1 0.338089 0.782998 0.5
176 1 0.362711 0.832273 0.5
177 1 0.387806 0.781082 0.5
178 1 0.40974 0.834971 0.5
179 1 0.437595 0.788145 0.5
180 1 0.457343 0.837241 0.5
209 1 0.376818 0.978118 0.5
162 1 0.022488 0.840988 0.5
183 1 0.0439789 0.892619 0.5
198 1 0.406803 0.93362 0.5
164 1 0.0701117 0.839751 0.5
185 1 0.0909177 0.891372 0.5
166 1 0.118872 0.841687 0.5
168 1 0.165668 0.845997 0.5
187 1 0.140118 0.892274 0.5
170 1 0.214525 0.841185 0.5
189 1 0.189737 0.893804 0.5
191 1 0.236948 0.890862 0.5
172 1 0.263772 0.839171 0.5
193 1 0.287919 0.886405 0.5
174 1 0.313292 0.834358 0.5
195 1 0.336384 0.881561 0.5
197 1 0.385832 0.882469 0.5
200 1 0.480536 0.888328 0.5
199 1 0.434224 0.889632 0.5
182 1 0.0201157 0.943673 0.5
202 1 0.0412528 0.994402 0.5
184 1 0.0671502 0.941957 0.5
203 1 0.0914444 0.989472 0.5
186 1 0.117732 0.942464 0.5
204 1 0.139699 0.998422 0.5
188 1 0.16451 0.947654 0.5
205 1 0.188009 0.999668 0.5
190 1 0.214264 0.941282 0.5
206 1 0.235343 0.988216 0.5
207 1 0.284682 0.986447 0.5
192 1 0.260372 0.937778 0.5
196 1 0.356373 0.93023 0.5
194 1 0.309365 0.936044 0.5
331 1 0.497004 0.590264 0.5
211 2 0.5 0.00010044 0.5
212 2 0.525 0.0503202 0.5
213 2 0.55 0.00010044 0.5
214 2 0.575 0.0503202 0.5
215 2 0.6 0.00010044 0.5
216 2 0.625 0.0503202 0.5
217 2 0.65 0.00010044 0.5
218 2 0.675 0.0503202 0.5
219 2 0.7 0.00010044 0.5
220 2 0.725 0.0503202 0.5
221 2 0.75 0.00010044 0.5
222 2 0.775 0.0503202 0.5
223 2 0.8 0.00010044 0.5
224 2 0.825 0.0503202 0.5
225 2 0.85 0.00010044 0.5
226 2 0.875 0.0503202 0.5
227 2 0.9 0.00010044 0.5
228 2 0.925 0.0503202 0.5
229 2 0.95 0.00010044 0.5
230 2 0.975 0.0503202 0.5
231 2 0.5 0.10054 0.5
233 2 0.55 0.10054 0.5
232 1 0.522921 0.151797 0.5
235 2 0.6 0.10054 0.5
234 1 0.57341 0.148583 0.5
236 1 0.626325 0.149862 0.5
237 2 0.65 0.10054 0.5
238 1 0.674774 0.148062 0.5
239 2 0.7 0.10054 0.5
240 1 0.725475 0.150007 0.5
241 2 0.75 0.10054 0.5
243 2 0.8 0.10054 0.5
242 1 0.775249 0.148801 0.5
245 2 0.85 0.10054 0.5
244 1 0.825713 0.149229 0.5
246 1 0.874482 0.148136 0.5
247 2 0.9 0.10054 0.5
248 1 0.927092 0.149592 0.5
249 2 0.95 0.10054 0.5
250 1 0.974803 0.149189 0.5
253 1 0.548139 0.197751 0.5
252 1 0.524592 0.246064 0.5
255 1 0.601675 0.197393 0.5
254 1 0.575666 0.248799 0.5
256 1 0.625205 0.245637 0.5
257 1 0.648808 0.196538 0.5
258 1 0.67538 0.244299 0.5
259 1 0.701754 0.197487 0.5
261 1 0.751273 0.19664 0.5
263 1 0.800733 0.19762 0.5
265 1 0.852437 0.197056 0.5
264 1 0.825172 0.242842 0.5
266 1 0.877773 0.246871 0.5
267 1 0.90178 0.197847 0.5
268 1 0.927166 0.247539 0.5
269 1 0.951285 0.197969 0.5
273 1 0.549956 0.296549 0.5
275 1 0.602138 0.295813 0.5
277 1 0.652377 0.296507 0.5
260 1 0.726279 0.245396 0.5
279 1 0.703023 0.295866 0.5
281 1 0.751516 0.292913 0.5
262 1 0.774848 0.245621 0.5
283 1 0.802772 0.292689 0.5
285 1 0.851071 0.294927 0.5
287 1 0.902205 0.294472 0.5
270 1 0.978409 0.244933 0.5
289 1 0.953636 0.293013 0.5
272 1 0.524115 0.345988 0.5
293 1 0.546592 0.394674 0.5
274 1 0.575188 0.346345 0.5
295 1 0.598489 0.39392 0.5
276 1 0.623524 0.344574 0.5
278 1 0.673756 0.344803 0.5
297 1 0.649343 0.392552 0.5
280 1 0.728136 0.342147 0.5
299 1 0.701804 0.390261 0.5
301 1 0.752116 0.390572 0.5
282 1 0.777457 0.3419 0.5
303 1 0.804743 0.389395 0.5
284 1 0.826101 0.342084 0.5
305 1 0.852358 0.390806 0.5
286 1 0.875678 0.341196 0.5
288 1 0.928603 0.343388 0.5
307 1 0.900301 0.390173 0.5
290 1 0.978483 0.341865 0.5
309 1 0.952612 0.390439 0.5
329 1 0.951304 0.491016 0.5
292 1 0.52183 0.44254 0.5
313 1 0.545622 0.490183 0.5
294 1 0.571236 0.440073 0.5
315 1 0.599776 0.489084 0.5
296 1 0.622963 0.439701 0.5
298 1 0.674598 0.438792 0.5
317 1 0.64755 0.485308 0.5
300 1 0.730037 0.437772 0.5
319 1 0.702854 0.483265 0.5
321 1 0.755095 0.485246 0.5
302 1 0.782968 0.439512 0.5
323 1 0.806381 0.489607 0.5
304 1 0.831329 0.442163 0.5
325 1 0.852503 0.49195 0.5
306 1 0.879214 0.441507 0.5
308 1 0.926508 0.439335 0.5
327 1 0.902622 0.489507 0.5
310 1 0.977772 0.441182 0.5
101 1 1.0002 0.493553 0.5
271 1 0.500382 0.29668 0.5
312 1 0.522736 0.542956 0.5
314 1 0.5744 0.53674 0.5
316 1 0.626301 0.534916 0.5
318 1 0.677985 0.530055 0.5
320 1 0.72935 0.532225 0.5
322 1 0.779972 0.536137 0.5
324 1 0.82701 0.541971 0.5
326 1 0.874355 0.540328 0.5
328 1 0.925402 0.54051 0.5
330 1 0.977105 0.541938 0.5
333 1 0.547323 0.592188 0.5
332 1 0.518856 0.640824 0.5
335 1 0.597224 0.591112 0.5
334 1 0.570578 0.642572 0.5
336 1 0.636063 0.625904 0.5
337 1 0.657765 0.579505 0.5
338 1 0.684582 0.630662 0.5
339 1 0.704689 0.578354 0.5
340 1 0.730456 0.629498 0.5
341 1 0.755255 0.582493 0.5
343 1 0.803672 0.590662 0.5
342 1 0.778211 0.639005 0.5
345 1 0.851885 0.591095 0.5
344 1 0.828771 0.639535 0.5
346 1 0.876918 0.639398 0.5
347 1 0.900229 0.589439 0.5
348 1 0.924972 0.638425 0.5
349 1 0.951841 0.588116 0.5
350 1 0.975592 0.641235 0.5
353 1 0.544986 0.692289 0.5
352 1 0.514886 0.742867 0.5
355 1 0.611979 0.671422 0.5
354 1 0.589358 0.718031 0.5
357 1 0.660873 0.676957 0.5
356 1 0.639733 0.725956 0.5
358 1 0.686448 0.727028 0.5
359 1 0.709806 0.678456 0.5
360 1 0.73408 0.734753 0.5
361 1 0.756869 0.687373 0.5
363 1 0.806765 0.690138 0.5
362 1 0.780876 0.737643 0.5
365 1 0.854135 0.693104 0.5
364 1 0.827556 0.741224 0.5
366 1 0.875718 0.744732 0.5
367 1 0.901481 0.691056 0.5
368 1 0.923447 0.743463 0.5
369 1 0.947941 0.69076 0.5
370 1 0.970363 0.744014 0.5
410 1 0.97175 0.944245 0.5
373 1 0.566298 0.761995 0.5
372 1 0.53475 0.798956 0.5
375 1 0.612914 0.769796 0.5
374 1 0.585713 0.814767 0.5
377 1 0.661529 0.776473 0.5
376 1 0.634339 0.821373 0.5
379 1 0.709495 0.783597 0.5
381 1 0.757852 0.786812 0.5
383 1 0.804564 0.793356 0.5
385 1 0.852337 0.796679 0.5
387 1 0.901639 0.793282 0.5
389 1 0.950994 0.794522 0.5
391 1 0.505445 0.843281 0.5
393 1 0.556177 0.85493 0.5
392 1 0.527271 0.893369 0.5
395 1 0.606961 0.864189 0.5
378 1 0.684441 0.829067 0.5
397 1 0.654818 0.873581 0.5
380 1 0.731749 0.834088 0.5
399 1 0.702081 0.881532 0.5
401 1 0.750846 0.888259 0.5
382 1 0.778771 0.842076 0.5
403 1 0.800294 0.889897 0.5
384 1 0.825781 0.843198 0.5
405 1 0.84888 0.894596 0.5
386 1 0.874574 0.845547 0.5
388 1 0.92441 0.844113 0.5
407 1 0.895838 0.897925 0.5
390 1 0.972696 0.842545 0.5
409 1 0.945671 0.895592 0.5
412 1 0.547818 0.944778 0.5
141 1 0.997728 0.693794 0.5
394 1 0.576762 0.904541 0.5
413 1 0.594831 0.959414 0.5
396 1 0.628063 0.917762 0.5
398 1 0.675227 0.926674 0.5
414 1 0.643408 0.973656 0.5
415 1 0.691614 0.98251 0.5
400 1 0.722834 0.935595 0.5
416 1 0.746981 0.986339 0.5
417 1 0.793956 0.989232 0.5
402 1 0.773408 0.937689 0.5
418 1 0.844899 0.995514 0.5
404 1 0.821103 0.942014 0.5
419 1 0.893491 0.99513 0.5
406 1 0.871669 0.945805 0.5
408 1 0.9205 0.945817 0.5
420 1 0.945255 0.992581 0.5
181 1 0.994252 0.892821 0.5
161 1 0.998718 0.791758 0.5
201 1 0.994366 0.997039 0.5
411 1 0.500213 0.938287 0.5
121 1 0.999458 0.592475 0.5
