ITEM: TIMESTEP
40750
ITEM: NUMBER OF ATOMS
420
ITEM: BOX BOUNDS pp ss pp
0.0000000000000000e+00 2.2653923264628304e+01
-1.9618873042551413e-03 2.0502299713773226e+01
-2.8317404080785380e-01 2.8317404080785380e-01
ITEM: ATOMS id type xs ys zs
1 2 0 9.56819e-05 0.5
2 2 0.025 0.0479366 0.5
3 2 0.05 9.56819e-05 0.5
4 2 0.075 0.0479366 0.5
5 2 0.1 9.56819e-05 0.5
6 2 0.125 0.0479366 0.5
7 2 0.15 9.56819e-05 0.5
8 2 0.175 0.0479366 0.5
9 2 0.2 9.56819e-05 0.5
10 2 0.225 0.0479366 0.5
11 2 0.25 9.56819e-05 0.5
12 2 0.275 0.0479366 0.5
13 2 0.3 9.56819e-05 0.5
14 2 0.325 0.0479366 0.5
15 2 0.35 9.56819e-05 0.5
16 2 0.375 0.0479366 0.5
17 2 0.4 9.56819e-05 0.5
18 2 0.425 0.0479366 0.5
19 2 0.45 9.56819e-05 0.5
20 2 0.475 0.0479366 0.5
21 2 0 0.0957776 0.5
23 2 0.05 0.0957776 0.5
22 1 0.0247986 0.143021 0.5
25 2 0.1 0.0957776 0.5
26 1 0.123699 0.142639 0.5
24 1 0.0737906 0.141458 0.5
27 2 0.15 0.0957776 0.5
28 1 0.174751 0.141974 0.5
29 2 0.2 0.0957776 0.5
31 2 0.25 0.0957776 0.5
33 2 0.3 0.0957776 0.5
32 1 0.277189 0.142876 0.5
35 2 0.35 0.0957776 0.5
34 1 0.324575 0.146233 0.5
36 1 0.371842 0.142501 0.5
37 2 0.4 0.0957776 0.5
38 1 0.425065 0.142472 0.5
39 2 0.45 0.0957776 0.5
43 1 0.0491373 0.189527 0.5
101 1 -7.88679e-05 0.474311 0.5
45 1 0.0965036 0.189958 0.5
47 1 0.14663 0.193254 0.5
30 1 0.224029 0.142837 0.5
49 1 0.197881 0.189144 0.5
51 1 0.249266 0.188745 0.5
53 1 0.299673 0.193187 0.5
55 1 0.353087 0.192341 0.5
57 1 0.404008 0.189007 0.5
40 1 0.480493 0.141024 0.5
59 1 0.4558 0.187308 0.5
100 1 0.477502 0.426157 0.5
42 1 0.0230675 0.236482 0.5
44 1 0.0728872 0.238273 0.5
65 1 0.0994725 0.286918 0.5
46 1 0.123229 0.23881 0.5
48 1 0.176438 0.237422 0.5
67 1 0.150941 0.284359 0.5
50 1 0.226872 0.237768 0.5
69 1 0.200834 0.283849 0.5
52 1 0.275287 0.237618 0.5
54 1 0.325781 0.238503 0.5
75 1 0.349398 0.285735 0.5
56 1 0.378922 0.237655 0.5
58 1 0.431001 0.23471 0.5
77 1 0.406089 0.284217 0.5
60 1 0.478866 0.236295 0.5
63 1 0.0460339 0.283361 0.5
62 1 0.025488 0.331473 0.5
64 1 0.0751542 0.332322 0.5
66 1 0.126203 0.332638 0.5
68 1 0.177416 0.332913 0.5
70 1 0.225943 0.333087 0.5
71 1 0.2498 0.287199 0.5
73 1 0.300862 0.285066 0.5
72 1 0.273083 0.332125 0.5
74 1 0.324156 0.332653 0.5
76 1 0.379063 0.328332 0.5
78 1 0.430156 0.331359 0.5
79 1 0.453567 0.283331 0.5
80 1 0.478403 0.335228 0.5
83 1 0.0492974 0.380509 0.5
85 1 0.0972231 0.378036 0.5
84 1 0.0753271 0.42739 0.5
87 1 0.149665 0.377036 0.5
89 1 0.201187 0.380531 0.5
91 1 0.250022 0.381963 0.5
93 1 0.302815 0.379496 0.5
95 1 0.35345 0.377103 0.5
97 1 0.403211 0.376276 0.5
99 1 0.451937 0.380057 0.5
82 1 0.0242726 0.425785 0.5
119 1 0.450061 0.473706 0.5
103 1 0.0490916 0.472182 0.5
107 1 0.0981269 0.471897 0.5
86 1 0.125027 0.422364 0.5
88 1 0.174928 0.424464 0.5
109 1 0.152487 0.474136 0.5
90 1 0.226359 0.428345 0.5
111 1 0.203494 0.475259 0.5
112 1 0.251332 0.473245 0.5
92 1 0.278027 0.424556 0.5
113 1 0.300971 0.472579 0.5
115 1 0.349193 0.473407 0.5
94 1 0.328902 0.426937 0.5
96 1 0.376256 0.425184 0.5
117 1 0.400671 0.47529 0.5
98 1 0.425666 0.425543 0.5
311 1 0.499723 0.474085 0.5
102 1 0.0243941 0.518806 0.5
105 1 0.0759287 0.522667 0.5
108 1 0.124766 0.518506 0.5
110 1 0.176283 0.520958 0.5
133 1 0.224143 0.523129 0.5
135 1 0.276856 0.518723 0.5
114 1 0.324961 0.520046 0.5
116 1 0.372617 0.523258 0.5
137 1 0.347767 0.568495 0.5
139 1 0.398872 0.568007 0.5
118 1 0.424953 0.523028 0.5
120 1 0.475134 0.522536 0.5
331 1 0.447535 0.572007 0.5
194 1 0.299438 0.947563 0.5
104 1 0.0497923 0.567832 0.5
123 1 0.0260254 0.617852 0.5
106 1 0.103527 0.568421 0.5
125 1 0.0767718 0.614113 0.5
127 1 0.127907 0.615468 0.5
129 1 0.150751 0.567051 0.5
130 1 0.174736 0.612698 0.5
131 1 0.199294 0.568854 0.5
134 1 0.25032 0.570869 0.5
132 1 0.224658 0.616337 0.5
136 1 0.299699 0.566354 0.5
155 1 0.27354 0.617645 0.5
157 1 0.322452 0.614779 0.5
138 1 0.372 0.614345 0.5
140 1 0.422994 0.617691 0.5
332 1 0.472879 0.615541 0.5
124 1 0.0525378 0.663643 0.5
126 1 0.100962 0.663939 0.5
128 1 0.150287 0.664345 0.5
151 1 0.198889 0.663499 0.5
153 1 0.247848 0.663672 0.5
156 1 0.299301 0.663335 0.5
158 1 0.350188 0.661579 0.5
179 1 0.371888 0.710926 0.5
159 1 0.397711 0.664086 0.5
160 1 0.422732 0.708647 0.5
209 1 0.358035 0.952101 0.5
351 1 0.451174 0.662685 0.5
352 1 0.474228 0.712915 0.5
143 1 0.0259711 0.710863 0.5
144 1 0.0507842 0.756745 0.5
145 1 0.0785592 0.710241 0.5
147 1 0.125854 0.711238 0.5
146 1 0.102387 0.759086 0.5
149 1 0.175068 0.712455 0.5
148 1 0.151445 0.758283 0.5
152 1 0.224537 0.710729 0.5
150 1 0.199237 0.759139 0.5
173 1 0.24914 0.758293 0.5
154 1 0.273014 0.711346 0.5
175 1 0.301453 0.757553 0.5
177 1 0.321727 0.710914 0.5
178 1 0.350491 0.758122 0.5
180 1 0.39974 0.755938 0.5
371 1 0.448393 0.760087 0.5
208 1 0.324191 0.998254 0.5
163 1 0.0267367 0.805658 0.5
164 1 0.0521616 0.853874 0.5
165 1 0.0779546 0.802807 0.5
167 1 0.12771 0.804077 0.5
169 1 0.177668 0.804981 0.5
171 1 0.225293 0.804367 0.5
170 1 0.204685 0.849687 0.5
172 1 0.252215 0.85088 0.5
174 1 0.27547 0.8032 0.5
176 1 0.326038 0.803533 0.5
199 1 0.374923 0.806048 0.5
391 1 0.424699 0.808221 0.5
411 1 0.479053 0.804604 0.5
200 1 0.454065 0.853363 0.5
183 1 0.0267754 0.899137 0.5
166 1 0.102486 0.849964 0.5
185 1 0.077605 0.897862 0.5
187 1 0.127169 0.895812 0.5
168 1 0.150838 0.851877 0.5
189 1 0.178598 0.898458 0.5
191 1 0.227192 0.897916 0.5
195 1 0.301315 0.852231 0.5
193 1 0.276648 0.899252 0.5
197 1 0.351466 0.853705 0.5
196 1 0.326982 0.901621 0.5
198 1 0.378456 0.899051 0.5
210 1 0.401321 0.852542 0.5
184 1 0.0505647 0.944079 0.5
202 1 0.0239807 0.993181 0.5
203 1 0.0726795 0.991973 0.5
186 1 0.0992556 0.944742 0.5
204 1 0.121019 0.990822 0.5
188 1 0.150705 0.942867 0.5
205 1 0.172786 0.990115 0.5
190 1 0.201847 0.944746 0.5
206 1 0.228428 0.9943 0.5
192 1 0.250492 0.946839 0.5
207 1 0.275955 0.995346 0.5
162 1 0.00119932 0.854019 0.5
182 1 0.00205654 0.946623 0.5
121 1 0.000316073 0.569956 0.5
333 1 0.500043 0.56853 0.5
122 1 0.00111405 0.664188 0.5
211 2 0.5 9.56819e-05 0.5
212 2 0.525 0.0479366 0.5
213 2 0.55 9.56819e-05 0.5
214 2 0.575 0.0479366 0.5
215 2 0.6 9.56819e-05 0.5
216 2 0.625 0.0479366 0.5
217 2 0.65 9.56819e-05 0.5
218 2 0.675 0.0479366 0.5
219 2 0.7 9.56819e-05 0.5
220 2 0.725 0.0479366 0.5
221 2 0.75 9.56819e-05 0.5
222 2 0.775 0.0479366 0.5
223 2 0.8 9.56819e-05 0.5
224 2 0.825 0.0479366 0.5
225 2 0.85 9.56819e-05 0.5
226 2 0.875 0.0479366 0.5
227 2 0.9 9.56819e-05 0.5
228 2 0.925 0.0479366 0.5
229 2 0.95 9.56819e-05 0.5
230 2 0.975 0.0479366 0.5
231 2 0.5 0.0957776 0.5
233 2 0.55 0.0957776 0.5
232 1 0.52817 0.14301 0.5
235 2 0.6 0.0957776 0.5
234 1 0.57619 0.144754 0.5
237 2 0.65 0.0957776 0.5
238 1 0.674811 0.142482 0.5
239 2 0.7 0.0957776 0.5
240 1 0.723419 0.141592 0.5
241 2 0.75 0.0957776 0.5
243 2 0.8 0.0957776 0.5
245 2 0.85 0.0957776 0.5
244 1 0.824497 0.143022 0.5
247 2 0.9 0.0957776 0.5
248 1 0.925864 0.14213 0.5
249 2 0.95 0.0957776 0.5
253 1 0.553072 0.19112 0.5
236 1 0.626781 0.143183 0.5
255 1 0.602549 0.190744 0.5
257 1 0.650531 0.189352 0.5
259 1 0.700342 0.189017 0.5
261 1 0.750992 0.191149 0.5
242 1 0.772431 0.143152 0.5
263 1 0.800285 0.189974 0.5
265 1 0.851007 0.187018 0.5
246 1 0.875114 0.140698 0.5
267 1 0.900827 0.188982 0.5
250 1 0.976736 0.143596 0.5
269 1 0.95067 0.189351 0.5
252 1 0.527792 0.237757 0.5
273 1 0.550259 0.284056 0.5
310 1 0.973864 0.427414 0.5
254 1 0.576243 0.238119 0.5
275 1 0.600052 0.28661 0.5
256 1 0.62602 0.236519 0.5
258 1 0.675735 0.235191 0.5
277 1 0.652429 0.283963 0.5
260 1 0.727202 0.236969 0.5
279 1 0.701163 0.283499 0.5
262 1 0.776517 0.239158 0.5
264 1 0.824812 0.2357 0.5
266 1 0.874526 0.236915 0.5
268 1 0.922069 0.238078 0.5
270 1 0.972518 0.237162 0.5
81 1 1.00205 0.380184 0.5
272 1 0.527544 0.332714 0.5
274 1 0.575882 0.331079 0.5
276 1 0.627641 0.332366 0.5
278 1 0.674598 0.329347 0.5
280 1 0.724434 0.332071 0.5
283 1 0.800183 0.283707 0.5
281 1 0.749992 0.285231 0.5
282 1 0.773821 0.331305 0.5
285 1 0.851585 0.284959 0.5
284 1 0.825823 0.329759 0.5
287 1 0.899847 0.287306 0.5
286 1 0.875882 0.332736 0.5
288 1 0.927029 0.333371 0.5
289 1 0.948232 0.283052 0.5
290 1 0.974753 0.332316 0.5
293 1 0.553977 0.381756 0.5
327 1 0.901875 0.473069 0.5
294 1 0.578157 0.429145 0.5
295 1 0.603255 0.38158 0.5
297 1 0.651428 0.380638 0.5
296 1 0.627206 0.428212 0.5
298 1 0.674888 0.427059 0.5
299 1 0.699392 0.378964 0.5
300 1 0.725221 0.427037 0.5
301 1 0.748731 0.379364 0.5
303 1 0.79854 0.378848 0.5
302 1 0.77501 0.425459 0.5
305 1 0.846806 0.379569 0.5
307 1 0.899737 0.377338 0.5
308 1 0.923415 0.424303 0.5
309 1 0.953005 0.382673 0.5
329 1 0.952452 0.474817 0.5
292 1 0.529915 0.428508 0.5
313 1 0.552296 0.476504 0.5
315 1 0.602128 0.473121 0.5
317 1 0.65259 0.475191 0.5
319 1 0.701141 0.47438 0.5
321 1 0.750193 0.474416 0.5
323 1 0.798966 0.474582 0.5
304 1 0.824824 0.426384 0.5
325 1 0.849068 0.473383 0.5
306 1 0.873918 0.426211 0.5
41 1 0.998253 0.190359 0.5
251 1 0.503443 0.190103 0.5
271 1 0.501279 0.286494 0.5
291 1 0.504093 0.382827 0.5
61 1 0.996381 0.283877 0.5
312 1 0.52469 0.519646 0.5
335 1 0.54991 0.568337 0.5
314 1 0.578057 0.522669 0.5
336 1 0.602522 0.569039 0.5
316 1 0.627214 0.52392 0.5
318 1 0.676561 0.523676 0.5
337 1 0.653798 0.569628 0.5
320 1 0.72598 0.521617 0.5
341 1 0.7532 0.570126 0.5
322 1 0.776709 0.522192 0.5
324 1 0.8257 0.523647 0.5
345 1 0.853592 0.56693 0.5
326 1 0.874492 0.517782 0.5
328 1 0.925214 0.521703 0.5
347 1 0.903917 0.567427 0.5
349 1 0.951908 0.570214 0.5
330 1 0.97484 0.521975 0.5
334 1 0.524919 0.614136 0.5
355 1 0.575468 0.616584 0.5
357 1 0.627379 0.618111 0.5
338 1 0.675787 0.61935 0.5
339 1 0.702967 0.56906 0.5
340 1 0.725538 0.617114 0.5
343 1 0.803556 0.570974 0.5
342 1 0.776086 0.617097 0.5
344 1 0.82929 0.615459 0.5
346 1 0.878026 0.613853 0.5
348 1 0.925498 0.616025 0.5
350 1 0.977189 0.616871 0.5
420 1 0.927199 0.990877 0.5
373 1 0.525966 0.714971 0.5
354 1 0.550749 0.664494 0.5
356 1 0.599615 0.663164 0.5
375 1 0.577349 0.714115 0.5
377 1 0.625104 0.711605 0.5
358 1 0.649105 0.666097 0.5
379 1 0.675634 0.716331 0.5
359 1 0.697732 0.666163 0.5
361 1 0.749909 0.664047 0.5
360 1 0.725728 0.711287 0.5
363 1 0.80303 0.663219 0.5
362 1 0.776702 0.711329 0.5
365 1 0.852896 0.663924 0.5
364 1 0.825929 0.708894 0.5
366 1 0.875489 0.711528 0.5
367 1 0.901473 0.663935 0.5
368 1 0.926118 0.710951 0.5
369 1 0.952257 0.664845 0.5
201 1 0.976479 0.998629 0.5
374 1 0.551259 0.76049 0.5
376 1 0.601829 0.759309 0.5
378 1 0.649371 0.761976 0.5
380 1 0.705043 0.761097 0.5
381 1 0.755374 0.759098 0.5
383 1 0.802171 0.758576 0.5
385 1 0.852967 0.757498 0.5
387 1 0.902906 0.756905 0.5
141 1 0.97847 0.71266 0.5
370 1 0.952646 0.756204 0.5
410 1 0.953252 0.94338 0.5
393 1 0.525362 0.808433 0.5
412 1 0.551949 0.853789 0.5
372 1 0.500487 0.759162 0.5
394 1 0.576164 0.809583 0.5
413 1 0.601006 0.855506 0.5
395 1 0.625153 0.810261 0.5
397 1 0.676791 0.806813 0.5
396 1 0.654302 0.85746 0.5
401 1 0.729627 0.808444 0.5
399 1 0.70424 0.855171 0.5
400 1 0.75239 0.853185 0.5
382 1 0.778279 0.80629 0.5
403 1 0.803214 0.851417 0.5
384 1 0.828651 0.805414 0.5
405 1 0.853938 0.850144 0.5
386 1 0.879215 0.804733 0.5
389 1 0.927118 0.804556 0.5
388 1 0.904012 0.851894 0.5
161 1 0.976707 0.804821 0.5
390 1 0.95228 0.853627 0.5
408 1 0.905539 0.943663 0.5
414 1 0.681169 0.903465 0.5
398 1 0.730104 0.902188 0.5
402 1 0.778709 0.898062 0.5
404 1 0.830824 0.898494 0.5
407 1 0.880055 0.897007 0.5
409 1 0.92809 0.89811 0.5
181 1 0.977783 0.900947 0.5
415 1 0.755677 0.949607 0.5
417 1 0.805696 0.945352 0.5
416 1 0.782548 0.991994 0.5
406 1 0.856127 0.94403 0.5
418 1 0.831832 0.992255 0.5
419 1 0.879257 0.990493 0.5
353 1 0.502111 0.666017 0.5
142 1 1.00141 0.760339 0.5
392 1 0.502931 0.85576 0.5
