ITEM: TIMESTEP
55750
ITEM: NUMBER OF ATOMS
420
ITEM: BOX BOUNDS pp ss pp
0.0000000000000000e+00 2.2653923264628304e+01
-1.9618873042551413e-03 2.0566652528115512e+01
-2.8317404080785380e-01 2.8317404080785380e-01
ITEM: ATOMS id type xs ys zs
1 2 0 9.53826e-05 0.5
2 2 0.025 0.0477867 0.5
3 2 0.05 9.53826e-05 0.5
4 2 0.075 0.0477867 0.5
5 2 0.1 9.53826e-05 0.5
6 2 0.125 0.0477867 0.5
7 2 0.15 9.53826e-05 0.5
8 2 0.175 0.0477867 0.5
9 2 0.2 9.53826e-05 0.5
10 2 0.225 0.0477867 0.5
11 2 0.25 9.53826e-05 0.5
12 2 0.275 0.0477867 0.5
13 2 0.3 9.53826e-05 0.5
14 2 0.325 0.0477867 0.5
15 2 0.35 9.53826e-05 0.5
16 2 0.375 0.0477867 0.5
17 2 0.4 9.53826e-05 0.5
18 2 0.425 0.0477867 0.5
19 2 0.45 9.53826e-05 0.5
20 2 0.475 0.0477867 0.5
21 2 0 0.095478 0.5
23 2 0.05 0.095478 0.5
22 1 0.026189 0.143124 0.5
25 2 0.1 0.095478 0.5
26 1 0.124293 0.141308 0.5
27 2 0.15 0.095478 0.5
29 2 0.2 0.095478 0.5
30 1 0.224617 0.142346 0.5
31 2 0.25 0.095478 0.5
33 2 0.3 0.095478 0.5
35 2 0.35 0.095478 0.5
34 1 0.325943 0.143505 0.5
37 2 0.4 0.095478 0.5
38 1 0.426268 0.14517 0.5
36 1 0.375931 0.143104 0.5
39 2 0.45 0.095478 0.5
40 1 0.475206 0.14244 0.5
43 1 0.0509689 0.189481 0.5
24 1 0.0749535 0.140868 0.5
45 1 0.0995274 0.190508 0.5
28 1 0.173838 0.141442 0.5
47 1 0.152599 0.190167 0.5
49 1 0.202061 0.186891 0.5
32 1 0.275982 0.142039 0.5
51 1 0.249117 0.192919 0.5
53 1 0.300501 0.190037 0.5
55 1 0.351986 0.189714 0.5
57 1 0.401779 0.190459 0.5
59 1 0.450116 0.190684 0.5
81 1 0.00367566 0.382442 0.5
42 1 0.0280553 0.238045 0.5
63 1 0.0527685 0.283763 0.5
44 1 0.076743 0.236143 0.5
65 1 0.101014 0.28427 0.5
46 1 0.127683 0.239629 0.5
48 1 0.175376 0.241231 0.5
67 1 0.150935 0.284699 0.5
50 1 0.222221 0.23668 0.5
69 1 0.200285 0.287208 0.5
52 1 0.272981 0.238382 0.5
73 1 0.299677 0.285253 0.5
54 1 0.326358 0.236849 0.5
75 1 0.350818 0.285793 0.5
56 1 0.374818 0.237306 0.5
58 1 0.426516 0.238194 0.5
60 1 0.477765 0.23418 0.5
79 1 0.4519 0.286758 0.5
119 1 0.4553 0.4731 0.5
62 1 0.0291836 0.33359 0.5
64 1 0.0787526 0.332552 0.5
66 1 0.129802 0.333447 0.5
68 1 0.177146 0.334694 0.5
70 1 0.22956 0.333902 0.5
71 1 0.251366 0.288179 0.5
72 1 0.276595 0.334766 0.5
74 1 0.325883 0.332924 0.5
77 1 0.401361 0.284433 0.5
76 1 0.377641 0.331693 0.5
78 1 0.429715 0.332185 0.5
80 1 0.479945 0.332982 0.5
83 1 0.0512357 0.380696 0.5
82 1 0.0274771 0.426747 0.5
85 1 0.103336 0.379331 0.5
84 1 0.0780213 0.425771 0.5
87 1 0.15229 0.380916 0.5
86 1 0.128906 0.428166 0.5
88 1 0.178925 0.427363 0.5
89 1 0.205162 0.379571 0.5
90 1 0.229595 0.42682 0.5
91 1 0.252481 0.381093 0.5
93 1 0.301987 0.379819 0.5
92 1 0.27952 0.427318 0.5
95 1 0.350937 0.379717 0.5
94 1 0.32645 0.428068 0.5
96 1 0.380274 0.423856 0.5
97 1 0.403484 0.378422 0.5
98 1 0.429461 0.42755 0.5
100 1 0.476242 0.423946 0.5
99 1 0.451303 0.378779 0.5
103 1 0.0491984 0.474437 0.5
107 1 0.102006 0.477243 0.5
109 1 0.152856 0.475052 0.5
111 1 0.199955 0.473671 0.5
112 1 0.256192 0.475645 0.5
113 1 0.303556 0.475769 0.5
115 1 0.353411 0.472419 0.5
117 1 0.402771 0.470539 0.5
61 1 0.00268185 0.288561 0.5
41 1 0.000789352 0.190657 0.5
102 1 0.0240467 0.519632 0.5
104 1 0.0476823 0.567229 0.5
105 1 0.0717886 0.521285 0.5
106 1 0.0992735 0.569029 0.5
108 1 0.125565 0.521115 0.5
110 1 0.17492 0.520226 0.5
129 1 0.148114 0.568434 0.5
133 1 0.227037 0.519193 0.5
131 1 0.201307 0.565462 0.5
134 1 0.252514 0.565868 0.5
135 1 0.278508 0.520863 0.5
136 1 0.300324 0.568115 0.5
114 1 0.329505 0.523222 0.5
116 1 0.376589 0.518621 0.5
137 1 0.354821 0.567048 0.5
118 1 0.428328 0.518446 0.5
139 1 0.404049 0.566125 0.5
120 1 0.479253 0.518303 0.5
331 1 0.453879 0.563658 0.5
208 1 0.329189 0.995573 0.5
123 1 0.0240213 0.616643 0.5
125 1 0.073126 0.615032 0.5
127 1 0.124846 0.614508 0.5
130 1 0.173929 0.613465 0.5
132 1 0.225701 0.612212 0.5
155 1 0.274984 0.614552 0.5
157 1 0.328291 0.611807 0.5
138 1 0.380555 0.615746 0.5
140 1 0.429074 0.612339 0.5
332 1 0.477959 0.610871 0.5
124 1 0.050587 0.663285 0.5
143 1 0.0244563 0.710828 0.5
209 1 0.353968 0.948986 0.5
126 1 0.0992301 0.661379 0.5
145 1 0.0746865 0.710761 0.5
147 1 0.125556 0.71164 0.5
128 1 0.153301 0.6625 0.5
149 1 0.176337 0.712428 0.5
151 1 0.202995 0.662962 0.5
152 1 0.22747 0.711423 0.5
153 1 0.255091 0.66426 0.5
156 1 0.305514 0.660005 0.5
154 1 0.278107 0.71295 0.5
158 1 0.359044 0.66363 0.5
179 1 0.377843 0.714373 0.5
177 1 0.328047 0.70858 0.5
159 1 0.406124 0.664928 0.5
160 1 0.433332 0.709414 0.5
351 1 0.45572 0.658131 0.5
352 1 0.481977 0.709397 0.5
144 1 0.0519327 0.755881 0.5
194 1 0.305205 0.948591 0.5
146 1 0.10155 0.760195 0.5
148 1 0.155151 0.762754 0.5
150 1 0.20453 0.75891 0.5
173 1 0.255216 0.760076 0.5
175 1 0.30645 0.762537 0.5
178 1 0.354651 0.760149 0.5
180 1 0.40783 0.756588 0.5
371 1 0.457642 0.755638 0.5
163 1 0.027688 0.802892 0.5
164 1 0.0533387 0.849578 0.5
162 1 0.00625211 0.852751 0.5
165 1 0.0795637 0.806877 0.5
166 1 0.102521 0.854158 0.5
167 1 0.128914 0.808418 0.5
169 1 0.177659 0.807923 0.5
168 1 0.153215 0.856569 0.5
171 1 0.228655 0.807222 0.5
170 1 0.203321 0.854155 0.5
172 1 0.252791 0.853142 0.5
174 1 0.277852 0.807121 0.5
195 1 0.305101 0.851354 0.5
176 1 0.333237 0.807257 0.5
197 1 0.358662 0.857624 0.5
199 1 0.380697 0.808193 0.5
391 1 0.431028 0.803373 0.5
210 1 0.407401 0.855508 0.5
411 1 0.482347 0.80445 0.5
200 1 0.457279 0.850599 0.5
192 1 0.25176 0.94967 0.5
183 1 0.0297966 0.899052 0.5
185 1 0.0775769 0.899529 0.5
187 1 0.129023 0.901347 0.5
189 1 0.179714 0.903201 0.5
191 1 0.230402 0.901331 0.5
193 1 0.278506 0.898253 0.5
196 1 0.329564 0.899113 0.5
198 1 0.38242 0.904846 0.5
184 1 0.0550043 0.946484 0.5
202 1 0.030468 0.990763 0.5
182 1 0.00476709 0.945297 0.5
203 1 0.0773201 0.996624 0.5
186 1 0.103822 0.947281 0.5
204 1 0.129125 0.994101 0.5
188 1 0.151167 0.948638 0.5
205 1 0.176976 0.993839 0.5
206 1 0.226797 0.99986 0.5
190 1 0.200649 0.950174 0.5
207 1 0.276248 0.995473 0.5
122 1 0.00170375 0.663206 0.5
142 1 0.0020996 0.75802 0.5
211 2 0.5 9.53826e-05 0.5
212 2 0.525 0.0477867 0.5
213 2 0.55 9.53826e-05 0.5
214 2 0.575 0.0477867 0.5
215 2 0.6 9.53826e-05 0.5
216 2 0.625 0.0477867 0.5
217 2 0.65 9.53826e-05 0.5
218 2 0.675 0.0477867 0.5
219 2 0.7 9.53826e-05 0.5
220 2 0.725 0.0477867 0.5
221 2 0.75 9.53826e-05 0.5
222 2 0.775 0.0477867 0.5
223 2 0.8 9.53826e-05 0.5
224 2 0.825 0.0477867 0.5
225 2 0.85 9.53826e-05 0.5
226 2 0.875 0.0477867 0.5
227 2 0.9 9.53826e-05 0.5
228 2 0.925 0.0477867 0.5
229 2 0.95 9.53826e-05 0.5
230 2 0.975 0.0477867 0.5
231 2 0.5 0.095478 0.5
233 2 0.55 0.095478 0.5
235 2 0.6 0.095478 0.5
237 2 0.65 0.095478 0.5
239 2 0.7 0.095478 0.5
241 2 0.75 0.095478 0.5
243 2 0.8 0.095478 0.5
245 2 0.85 0.095478 0.5
244 1 0.825918 0.14449 0.5
247 2 0.9 0.095478 0.5
249 2 0.95 0.095478 0.5
232 1 0.525793 0.141942 0.5
253 1 0.55433 0.191977 0.5
234 1 0.576262 0.141835 0.5
255 1 0.601202 0.189358 0.5
236 1 0.62464 0.140845 0.5
238 1 0.677552 0.142837 0.5
257 1 0.65024 0.185949 0.5
240 1 0.726761 0.143433 0.5
259 1 0.704651 0.189323 0.5
242 1 0.775729 0.14223 0.5
261 1 0.750863 0.190581 0.5
263 1 0.80049 0.188818 0.5
246 1 0.877027 0.143578 0.5
265 1 0.852132 0.188373 0.5
248 1 0.925649 0.143033 0.5
267 1 0.901946 0.192211 0.5
250 1 0.975572 0.144863 0.5
269 1 0.950839 0.19075 0.5
329 1 0.948069 0.473341 0.5
252 1 0.528499 0.23406 0.5
273 1 0.551524 0.281267 0.5
254 1 0.577544 0.236861 0.5
275 1 0.60282 0.28174 0.5
256 1 0.629411 0.234886 0.5
258 1 0.674452 0.236858 0.5
277 1 0.650726 0.283205 0.5
260 1 0.724062 0.236538 0.5
281 1 0.749263 0.283963 0.5
262 1 0.774157 0.238094 0.5
283 1 0.800865 0.284001 0.5
264 1 0.824799 0.237595 0.5
266 1 0.879647 0.237312 0.5
285 1 0.852198 0.281546 0.5
268 1 0.926722 0.239455 0.5
270 1 0.977386 0.239191 0.5
289 1 0.952005 0.285544 0.5
327 1 0.89863 0.473512 0.5
272 1 0.527213 0.329744 0.5
274 1 0.574383 0.328117 0.5
276 1 0.626389 0.327722 0.5
278 1 0.677156 0.329169 0.5
279 1 0.700457 0.282609 0.5
280 1 0.726298 0.330152 0.5
282 1 0.776001 0.33 0.5
284 1 0.825711 0.329605 0.5
286 1 0.875229 0.329485 0.5
287 1 0.901072 0.285724 0.5
288 1 0.926444 0.331069 0.5
290 1 0.97782 0.335801 0.5
293 1 0.552169 0.374948 0.5
292 1 0.52769 0.423982 0.5
321 1 0.752203 0.46797 0.5
295 1 0.601839 0.374994 0.5
294 1 0.577568 0.421201 0.5
297 1 0.650617 0.37676 0.5
299 1 0.701389 0.378636 0.5
301 1 0.750815 0.374564 0.5
303 1 0.801304 0.375912 0.5
305 1 0.849721 0.375419 0.5
304 1 0.827212 0.424272 0.5
306 1 0.874827 0.42243 0.5
308 1 0.924996 0.424915 0.5
307 1 0.902922 0.377264 0.5
310 1 0.97421 0.42581 0.5
309 1 0.950489 0.378072 0.5
325 1 0.8487 0.471324 0.5
313 1 0.556105 0.469441 0.5
302 1 0.773906 0.421896 0.5
315 1 0.60366 0.47021 0.5
296 1 0.62395 0.421996 0.5
298 1 0.676226 0.422142 0.5
317 1 0.65083 0.472076 0.5
319 1 0.699352 0.469925 0.5
300 1 0.725098 0.424789 0.5
323 1 0.80043 0.470183 0.5
271 1 0.501206 0.279959 0.5
311 1 0.504067 0.470738 0.5
251 1 0.500351 0.188493 0.5
291 1 0.50255 0.380135 0.5
101 1 0.999577 0.474508 0.5
312 1 0.529056 0.51431 0.5
335 1 0.555709 0.567936 0.5
314 1 0.57945 0.524183 0.5
316 1 0.626399 0.518375 0.5
318 1 0.677471 0.517459 0.5
337 1 0.65282 0.56611 0.5
320 1 0.725828 0.518226 0.5
339 1 0.700683 0.565393 0.5
322 1 0.776417 0.516299 0.5
324 1 0.826047 0.520794 0.5
345 1 0.849954 0.566162 0.5
326 1 0.873795 0.520286 0.5
328 1 0.923968 0.51747 0.5
347 1 0.898863 0.566265 0.5
330 1 0.976357 0.521282 0.5
349 1 0.947456 0.565028 0.5
410 1 0.954291 0.945237 0.5
334 1 0.527274 0.612651 0.5
336 1 0.605386 0.566656 0.5
355 1 0.581536 0.61327 0.5
357 1 0.629572 0.615238 0.5
338 1 0.67706 0.611372 0.5
340 1 0.72681 0.612208 0.5
341 1 0.753719 0.562869 0.5
343 1 0.802135 0.566804 0.5
342 1 0.777304 0.613572 0.5
344 1 0.828391 0.613755 0.5
346 1 0.878686 0.615055 0.5
348 1 0.927452 0.614292 0.5
350 1 0.975472 0.615019 0.5
201 1 0.979792 0.990251 0.5
354 1 0.556201 0.661905 0.5
373 1 0.530819 0.70602 0.5
356 1 0.606466 0.659859 0.5
375 1 0.580637 0.707197 0.5
377 1 0.631413 0.707737 0.5
358 1 0.657768 0.661613 0.5
379 1 0.683303 0.707766 0.5
359 1 0.705105 0.65902 0.5
360 1 0.732256 0.709605 0.5
361 1 0.751648 0.661361 0.5
363 1 0.803158 0.658388 0.5
362 1 0.781051 0.707043 0.5
365 1 0.853195 0.659722 0.5
364 1 0.828274 0.705608 0.5
366 1 0.877583 0.709932 0.5
367 1 0.902714 0.66227 0.5
368 1 0.925779 0.709766 0.5
369 1 0.950394 0.663139 0.5
141 1 0.974629 0.708316 0.5
374 1 0.556915 0.755154 0.5
420 1 0.930476 0.993378 0.5
376 1 0.605309 0.753364 0.5
378 1 0.654196 0.75392 0.5
380 1 0.708819 0.755054 0.5
381 1 0.75552 0.75742 0.5
383 1 0.804571 0.753922 0.5
385 1 0.851667 0.755662 0.5
387 1 0.901499 0.758584 0.5
370 1 0.953099 0.756104 0.5
393 1 0.534843 0.800545 0.5
412 1 0.561442 0.85253 0.5
394 1 0.580952 0.803259 0.5
413 1 0.609257 0.846665 0.5
395 1 0.631966 0.800996 0.5
397 1 0.681811 0.79833 0.5
396 1 0.658152 0.843671 0.5
401 1 0.727812 0.801622 0.5
399 1 0.705312 0.845996 0.5
400 1 0.753533 0.848365 0.5
382 1 0.778249 0.803465 0.5
403 1 0.80268 0.850677 0.5
384 1 0.826704 0.804567 0.5
405 1 0.850918 0.849446 0.5
386 1 0.877601 0.804931 0.5
389 1 0.928672 0.803216 0.5
388 1 0.905226 0.851396 0.5
161 1 0.979538 0.80519 0.5
390 1 0.95613 0.853883 0.5
414 1 0.68209 0.8936 0.5
398 1 0.729193 0.892978 0.5
402 1 0.778099 0.897134 0.5
404 1 0.828196 0.899355 0.5
407 1 0.877542 0.897872 0.5
409 1 0.930254 0.901585 0.5
181 1 0.979725 0.900982 0.5
415 1 0.754011 0.942263 0.5
417 1 0.803337 0.949077 0.5
416 1 0.776362 0.992403 0.5
406 1 0.853873 0.943354 0.5
418 1 0.82815 0.994483 0.5
419 1 0.879056 0.988921 0.5
408 1 0.903555 0.944235 0.5
392 1 0.511199 0.848661 0.5
372 1 0.505343 0.754135 0.5
353 1 0.505019 0.658827 0.5
333 1 0.50295 0.564579 0.5
121 1 0.998752 0.568449 0.5
