ITEM: TIMESTEP
55250
ITEM: NUMBER OF ATOMS
420
ITEM: BOX BOUNDS pp ss pp
0.0000000000000000e+00 2.2653923264628304e+01
-1.9618873042551413e-03 2.0506205371627118e+01
-2.8317404080785380e-01 2.8317404080785380e-01
ITEM: ATOMS id type xs ys zs
1 2 0 9.56637e-05 0.5
2 2 0.025 0.0479275 0.5
3 2 0.05 9.56637e-05 0.5
4 2 0.075 0.0479275 0.5
5 2 0.1 9.56637e-05 0.5
6 2 0.125 0.0479275 0.5
7 2 0.15 9.56637e-05 0.5
8 2 0.175 0.0479275 0.5
9 2 0.2 9.56637e-05 0.5
10 2 0.225 0.0479275 0.5
11 2 0.25 9.56637e-05 0.5
12 2 0.275 0.0479275 0.5
13 2 0.3 9.56637e-05 0.5
14 2 0.325 0.0479275 0.5
15 2 0.35 9.56637e-05 0.5
16 2 0.375 0.0479275 0.5
17 2 0.4 9.56637e-05 0.5
18 2 0.425 0.0479275 0.5
19 2 0.45 9.56637e-05 0.5
20 2 0.475 0.0479275 0.5
21 2 0 0.0957594 0.5
23 2 0.05 0.0957594 0.5
22 1 0.0259216 0.140728 0.5
25 2 0.1 0.0957594 0.5
26 1 0.123878 0.140757 0.5
27 2 0.15 0.0957594 0.5
29 2 0.2 0.0957594 0.5
30 1 0.22407 0.142615 0.5
31 2 0.25 0.0957594 0.5
33 2 0.3 0.0957594 0.5
35 2 0.35 0.0957594 0.5
34 1 0.32096 0.144639 0.5
37 2 0.4 0.0957594 0.5
38 1 0.425274 0.140751 0.5
36 1 0.375481 0.141341 0.5
39 2 0.45 0.0957594 0.5
40 1 0.473711 0.142143 0.5
43 1 0.0499446 0.191266 0.5
24 1 0.0755387 0.142458 0.5
45 1 0.0978205 0.190852 0.5
28 1 0.177493 0.142463 0.5
47 1 0.148149 0.187341 0.5
49 1 0.198817 0.189661 0.5
32 1 0.273067 0.141675 0.5
51 1 0.248043 0.18963 0.5
53 1 0.298086 0.190264 0.5
55 1 0.349031 0.188312 0.5
57 1 0.3997 0.187434 0.5
59 1 0.448303 0.188279 0.5
101 1 0.00288609 0.474082 0.5
42 1 0.0234516 0.23781 0.5
63 1 0.0508731 0.282482 0.5
44 1 0.0740526 0.236949 0.5
65 1 0.0996456 0.282505 0.5
46 1 0.124344 0.236192 0.5
48 1 0.171949 0.233923 0.5
67 1 0.150562 0.282158 0.5
50 1 0.223123 0.236756 0.5
69 1 0.19896 0.282506 0.5
52 1 0.271981 0.235187 0.5
73 1 0.297621 0.282212 0.5
54 1 0.325806 0.236827 0.5
75 1 0.348265 0.285522 0.5
56 1 0.374456 0.233632 0.5
58 1 0.423159 0.232984 0.5
60 1 0.474167 0.236042 0.5
79 1 0.449431 0.279852 0.5
119 1 0.447476 0.471507 0.5
62 1 0.0223823 0.331887 0.5
64 1 0.073765 0.328583 0.5
66 1 0.12384 0.328396 0.5
68 1 0.174682 0.328501 0.5
70 1 0.223078 0.332481 0.5
71 1 0.24758 0.284811 0.5
72 1 0.271615 0.332146 0.5
74 1 0.322325 0.331635 0.5
77 1 0.396627 0.281875 0.5
76 1 0.373989 0.330059 0.5
78 1 0.424719 0.327046 0.5
80 1 0.47314 0.330171 0.5
83 1 0.0523438 0.375132 0.5
82 1 0.0246109 0.426843 0.5
85 1 0.102097 0.374939 0.5
84 1 0.0741259 0.421531 0.5
87 1 0.151691 0.372849 0.5
86 1 0.125031 0.424048 0.5
88 1 0.174754 0.423834 0.5
89 1 0.199315 0.378157 0.5
90 1 0.226766 0.42381 0.5
91 1 0.251432 0.378879 0.5
93 1 0.298141 0.37809 0.5
92 1 0.273449 0.424931 0.5
95 1 0.347721 0.378105 0.5
94 1 0.322754 0.426744 0.5
96 1 0.373459 0.428722 0.5
97 1 0.396982 0.379098 0.5
98 1 0.422111 0.425432 0.5
100 1 0.474461 0.426742 0.5
99 1 0.449228 0.376717 0.5
103 1 0.0511297 0.471497 0.5
107 1 0.101936 0.469852 0.5
109 1 0.151077 0.472478 0.5
111 1 0.201375 0.46996 0.5
112 1 0.248442 0.470659 0.5
113 1 0.298506 0.472487 0.5
115 1 0.348756 0.471022 0.5
117 1 0.399089 0.473442 0.5
251 1 0.49962 0.189596 0.5
41 1 0.00162987 0.191353 0.5
61 1 0.000643099 0.285074 0.5
102 1 0.0293879 0.523229 0.5
104 1 0.0542945 0.56774 0.5
105 1 0.078417 0.516735 0.5
106 1 0.102106 0.568408 0.5
108 1 0.127152 0.518079 0.5
110 1 0.176061 0.514834 0.5
129 1 0.148909 0.565785 0.5
133 1 0.223949 0.517162 0.5
131 1 0.198939 0.564728 0.5
134 1 0.251657 0.565932 0.5
135 1 0.271949 0.51832 0.5
136 1 0.302646 0.569063 0.5
114 1 0.322968 0.518403 0.5
116 1 0.374722 0.517405 0.5
137 1 0.352041 0.566924 0.5
118 1 0.429598 0.521256 0.5
139 1 0.399947 0.561885 0.5
120 1 0.477806 0.520671 0.5
331 1 0.45257 0.56695 0.5
208 1 0.325743 0.994929 0.5
123 1 0.0279545 0.61829 0.5
125 1 0.0783746 0.615938 0.5
127 1 0.127721 0.612873 0.5
130 1 0.177075 0.611935 0.5
132 1 0.225669 0.61268 0.5
155 1 0.272817 0.612505 0.5
157 1 0.323548 0.615926 0.5
138 1 0.375123 0.612224 0.5
140 1 0.425418 0.612346 0.5
332 1 0.474839 0.61733 0.5
124 1 0.0522144 0.664856 0.5
143 1 0.0296845 0.71077 0.5
209 1 0.350112 0.943869 0.5
126 1 0.101081 0.66221 0.5
145 1 0.0775094 0.70983 0.5
147 1 0.12743 0.706189 0.5
128 1 0.148352 0.660017 0.5
149 1 0.177534 0.705884 0.5
151 1 0.199105 0.660241 0.5
152 1 0.22741 0.709416 0.5
153 1 0.248356 0.659173 0.5
156 1 0.296872 0.660843 0.5
154 1 0.274796 0.710086 0.5
158 1 0.351656 0.658872 0.5
179 1 0.374179 0.70476 0.5
177 1 0.323781 0.710434 0.5
159 1 0.399146 0.658155 0.5
160 1 0.423352 0.707116 0.5
351 1 0.450923 0.663966 0.5
352 1 0.473924 0.709979 0.5
144 1 0.0537393 0.757313 0.5
142 1 0.00592752 0.756811 0.5
146 1 0.101275 0.753754 0.5
148 1 0.150006 0.754909 0.5
150 1 0.198502 0.754491 0.5
173 1 0.251006 0.755118 0.5
175 1 0.30238 0.755847 0.5
178 1 0.351917 0.755973 0.5
180 1 0.400149 0.753861 0.5
371 1 0.450244 0.757131 0.5
163 1 0.0305292 0.804509 0.5
164 1 0.0550084 0.853472 0.5
162 1 0.0044546 0.850638 0.5
165 1 0.0804198 0.803752 0.5
166 1 0.105116 0.853882 0.5
167 1 0.127138 0.803806 0.5
169 1 0.176959 0.803643 0.5
168 1 0.152849 0.85159 0.5
171 1 0.229158 0.801709 0.5
170 1 0.204149 0.847997 0.5
172 1 0.252563 0.849165 0.5
174 1 0.27758 0.803391 0.5
195 1 0.303365 0.848779 0.5
176 1 0.327122 0.801545 0.5
197 1 0.35229 0.847454 0.5
199 1 0.377076 0.802429 0.5
391 1 0.428252 0.803551 0.5
210 1 0.399013 0.848707 0.5
411 1 0.477226 0.804282 0.5
200 1 0.447243 0.850828 0.5
392 1 0.497785 0.854957 0.5
183 1 0.0285353 0.897467 0.5
185 1 0.0813913 0.90043 0.5
187 1 0.129503 0.901969 0.5
189 1 0.176982 0.90199 0.5
191 1 0.226329 0.897235 0.5
193 1 0.277784 0.896495 0.5
196 1 0.326354 0.893647 0.5
198 1 0.374649 0.896385 0.5
184 1 0.058198 0.948369 0.5
202 1 0.0329662 0.994248 0.5
182 1 0.00715656 0.945582 0.5
203 1 0.0815119 0.995498 0.5
186 1 0.106472 0.951018 0.5
204 1 0.127849 0.999219 0.5
188 1 0.157067 0.95181 0.5
205 1 0.179867 0.997192 0.5
206 1 0.229687 0.99477 0.5
190 1 0.20556 0.946758 0.5
207 1 0.278105 0.994882 0.5
194 1 0.302891 0.945544 0.5
192 1 0.252609 0.947315 0.5
372 1 0.498648 0.757356 0.5
121 1 0.00410815 0.569185 0.5
333 1 0.500811 0.568776 0.5
122 1 0.00338793 0.662876 0.5
211 2 0.5 9.56637e-05 0.5
212 2 0.525 0.0479275 0.5
213 2 0.55 9.56637e-05 0.5
214 2 0.575 0.0479275 0.5
215 2 0.6 9.56637e-05 0.5
216 2 0.625 0.0479275 0.5
217 2 0.65 9.56637e-05 0.5
218 2 0.675 0.0479275 0.5
219 2 0.7 9.56637e-05 0.5
220 2 0.725 0.0479275 0.5
221 2 0.75 9.56637e-05 0.5
222 2 0.775 0.0479275 0.5
223 2 0.8 9.56637e-05 0.5
224 2 0.825 0.0479275 0.5
225 2 0.85 9.56637e-05 0.5
226 2 0.875 0.0479275 0.5
227 2 0.9 9.56637e-05 0.5
228 2 0.925 0.0479275 0.5
229 2 0.95 9.56637e-05 0.5
230 2 0.975 0.0479275 0.5
231 2 0.5 0.0957594 0.5
233 2 0.55 0.0957594 0.5
235 2 0.6 0.0957594 0.5
237 2 0.65 0.0957594 0.5
239 2 0.7 0.0957594 0.5
241 2 0.75 0.0957594 0.5
243 2 0.8 0.0957594 0.5
245 2 0.85 0.0957594 0.5
244 1 0.824203 0.142237 0.5
247 2 0.9 0.0957594 0.5
249 2 0.95 0.0957594 0.5
232 1 0.52542 0.143101 0.5
253 1 0.550058 0.19105 0.5
234 1 0.573929 0.141521 0.5
255 1 0.598889 0.187834 0.5
236 1 0.623971 0.141202 0.5
238 1 0.673923 0.144362 0.5
257 1 0.649882 0.190255 0.5
240 1 0.724316 0.143551 0.5
259 1 0.698697 0.189646 0.5
242 1 0.773876 0.143228 0.5
261 1 0.74826 0.189917 0.5
263 1 0.799929 0.189454 0.5
246 1 0.875196 0.142817 0.5
265 1 0.851211 0.189862 0.5
248 1 0.923719 0.143967 0.5
267 1 0.899914 0.192177 0.5
250 1 0.97146 0.145428 0.5
269 1 0.948124 0.194828 0.5
329 1 0.954699 0.474565 0.5
252 1 0.523751 0.235028 0.5
273 1 0.549193 0.282734 0.5
254 1 0.574083 0.235846 0.5
275 1 0.599771 0.282879 0.5
256 1 0.624449 0.238729 0.5
258 1 0.675429 0.237656 0.5
277 1 0.65017 0.286469 0.5
260 1 0.722973 0.235093 0.5
281 1 0.750638 0.283407 0.5
262 1 0.773468 0.23678 0.5
283 1 0.798846 0.288734 0.5
264 1 0.824776 0.239941 0.5
266 1 0.874528 0.237547 0.5
285 1 0.847923 0.288939 0.5
268 1 0.923518 0.238828 0.5
270 1 0.975248 0.239413 0.5
289 1 0.949348 0.283338 0.5
327 1 0.906587 0.475657 0.5
272 1 0.52459 0.334666 0.5
274 1 0.575482 0.331057 0.5
276 1 0.627572 0.335117 0.5
278 1 0.674699 0.335104 0.5
279 1 0.698195 0.286571 0.5
280 1 0.726469 0.333385 0.5
282 1 0.775285 0.337546 0.5
284 1 0.823512 0.3345 0.5
286 1 0.875536 0.332928 0.5
287 1 0.896809 0.285866 0.5
288 1 0.927533 0.330948 0.5
290 1 0.974097 0.327594 0.5
293 1 0.548908 0.381451 0.5
292 1 0.524348 0.427387 0.5
321 1 0.753519 0.480115 0.5
295 1 0.596105 0.379283 0.5
294 1 0.575121 0.42765 0.5
297 1 0.652346 0.382401 0.5
299 1 0.700611 0.380923 0.5
301 1 0.750542 0.381655 0.5
303 1 0.803319 0.384247 0.5
305 1 0.85298 0.380602 0.5
304 1 0.826223 0.427025 0.5
306 1 0.878073 0.426687 0.5
308 1 0.928155 0.426281 0.5
307 1 0.901132 0.379178 0.5
310 1 0.974393 0.423288 0.5
309 1 0.950624 0.376535 0.5
325 1 0.854541 0.475318 0.5
313 1 0.550693 0.474008 0.5
311 1 0.499351 0.475741 0.5
315 1 0.599674 0.47226 0.5
296 1 0.624761 0.427759 0.5
298 1 0.676263 0.429016 0.5
317 1 0.647891 0.475318 0.5
319 1 0.698989 0.476649 0.5
300 1 0.723363 0.4277 0.5
323 1 0.801156 0.474058 0.5
302 1 0.774965 0.430916 0.5
271 1 0.498812 0.284497 0.5
81 1 0.998811 0.377771 0.5
291 1 0.499144 0.381066 0.5
312 1 0.525991 0.519676 0.5
335 1 0.550878 0.567217 0.5
314 1 0.578396 0.520802 0.5
316 1 0.625577 0.521994 0.5
318 1 0.675732 0.523134 0.5
337 1 0.651995 0.569843 0.5
320 1 0.726962 0.52247 0.5
339 1 0.700927 0.571865 0.5
322 1 0.780494 0.525482 0.5
324 1 0.829204 0.519757 0.5
345 1 0.856729 0.570274 0.5
326 1 0.879282 0.522342 0.5
328 1 0.929896 0.523148 0.5
347 1 0.904389 0.571336 0.5
330 1 0.980607 0.521813 0.5
349 1 0.95396 0.57338 0.5
410 1 0.955523 0.942423 0.5
334 1 0.527052 0.614717 0.5
336 1 0.600852 0.565925 0.5
355 1 0.576919 0.61528 0.5
357 1 0.625789 0.615572 0.5
338 1 0.676805 0.620354 0.5
340 1 0.72555 0.618228 0.5
341 1 0.753166 0.570869 0.5
343 1 0.80601 0.570519 0.5
342 1 0.780845 0.614048 0.5
344 1 0.829636 0.617428 0.5
346 1 0.881871 0.617862 0.5
348 1 0.929705 0.619751 0.5
350 1 0.979513 0.620045 0.5
201 1 0.982569 0.990719 0.5
354 1 0.550576 0.662619 0.5
373 1 0.523237 0.707409 0.5
356 1 0.600049 0.662895 0.5
375 1 0.573559 0.711923 0.5
377 1 0.623992 0.710935 0.5
358 1 0.648335 0.665175 0.5
379 1 0.67658 0.711579 0.5
359 1 0.700716 0.665867 0.5
360 1 0.728196 0.711382 0.5
361 1 0.751088 0.662422 0.5
363 1 0.802461 0.666 0.5
362 1 0.778372 0.711225 0.5
365 1 0.853824 0.662762 0.5
364 1 0.827223 0.712263 0.5
366 1 0.876089 0.712145 0.5
367 1 0.904376 0.66681 0.5
368 1 0.928381 0.713209 0.5
369 1 0.955219 0.663419 0.5
141 1 0.977683 0.711604 0.5
374 1 0.547395 0.760711 0.5
420 1 0.933605 0.989385 0.5
376 1 0.59862 0.758973 0.5
378 1 0.650161 0.757794 0.5
380 1 0.705507 0.757445 0.5
381 1 0.75494 0.75812 0.5
383 1 0.803567 0.759199 0.5
385 1 0.853036 0.76193 0.5
387 1 0.904391 0.759619 0.5
370 1 0.953579 0.76014 0.5
393 1 0.527101 0.807172 0.5
412 1 0.548321 0.852391 0.5
394 1 0.575418 0.806242 0.5
413 1 0.597055 0.856979 0.5
395 1 0.623506 0.808107 0.5
397 1 0.676052 0.802304 0.5
396 1 0.653489 0.850596 0.5
401 1 0.728864 0.806238 0.5
399 1 0.701573 0.848506 0.5
400 1 0.752185 0.851948 0.5
382 1 0.777827 0.806188 0.5
403 1 0.803713 0.853651 0.5
384 1 0.828152 0.80651 0.5
405 1 0.853872 0.853209 0.5
386 1 0.878051 0.806457 0.5
389 1 0.92682 0.805735 0.5
388 1 0.903435 0.852443 0.5
161 1 0.980377 0.804093 0.5
390 1 0.954964 0.851266 0.5
414 1 0.679249 0.894342 0.5
398 1 0.726279 0.894266 0.5
402 1 0.777121 0.898074 0.5
404 1 0.82829 0.899275 0.5
407 1 0.879228 0.898372 0.5
409 1 0.928033 0.896239 0.5
181 1 0.981688 0.897221 0.5
415 1 0.752379 0.94215 0.5
417 1 0.802283 0.942651 0.5
416 1 0.780879 0.99408 0.5
406 1 0.85659 0.944523 0.5
418 1 0.831559 0.995359 0.5
419 1 0.884442 0.99266 0.5
408 1 0.905657 0.944673 0.5
353 1 0.50137 0.66172 0.5
