ITEM: TIMESTEP
26500
ITEM: NUMBER OF ATOMS
420
ITEM: BOX BOUNDS pp ss pp
0.0000000000000000e+00 2.2653923264628304e+01
-1.9618873042551413e-03 2.1457301870515870e+01
-2.8317404080785380e-01 2.8317404080785380e-01
ITEM: ATOMS id type xs ys zs
1 2 0 9.14238e-05 0.5
2 2 0.025 0.0458033 0.5
3 2 0.05 9.14238e-05 0.5
4 2 0.075 0.0458033 0.5
5 2 0.1 9.14238e-05 0.5
6 2 0.125 0.0458033 0.5
7 2 0.15 9.14238e-05 0.5
8 2 0.175 0.0458033 0.5
9 2 0.2 9.14238e-05 0.5
10 2 0.225 0.0458033 0.5
11 2 0.25 9.14238e-05 0.5
12 2 0.275 0.0458033 0.5
13 2 0.3 9.14238e-05 0.5
14 2 0.325 0.0458033 0.5
15 2 0.35 9.14238e-05 0.5
16 2 0.375 0.0458033 0.5
17 2 0.4 9.14238e-05 0.5
18 2 0.425 0.0458033 0.5
19 2 0.45 9.14238e-05 0.5
20 2 0.475 0.0458033 0.5
21 2 0 0.0915152 0.5
23 2 0.05 0.0915152 0.5
22 1 0.0216718 0.136747 0.5
25 2 0.1 0.0915152 0.5
24 1 0.0762812 0.135654 0.5
26 1 0.123251 0.137864 0.5
27 2 0.15 0.0915152 0.5
28 1 0.173667 0.138094 0.5
29 2 0.2 0.0915152 0.5
30 1 0.221379 0.137271 0.5
31 2 0.25 0.0915152 0.5
33 2 0.3 0.0915152 0.5
32 1 0.269888 0.138883 0.5
35 2 0.35 0.0915152 0.5
34 1 0.324764 0.136117 0.5
36 1 0.373524 0.137759 0.5
37 2 0.4 0.0915152 0.5
38 1 0.425674 0.137488 0.5
39 2 0.45 0.0915152 0.5
40 1 0.475468 0.138561 0.5
43 1 0.0483917 0.184356 0.5
45 1 0.0960619 0.181751 0.5
47 1 0.146502 0.183383 0.5
49 1 0.197809 0.183535 0.5
51 1 0.245811 0.181349 0.5
53 1 0.295136 0.183517 0.5
55 1 0.34623 0.181324 0.5
57 1 0.397683 0.181019 0.5
59 1 0.44917 0.184068 0.5
42 1 0.0202297 0.229284 0.5
63 1 0.0442481 0.273005 0.5
44 1 0.0713834 0.230371 0.5
65 1 0.0955226 0.27414 0.5
46 1 0.120389 0.230343 0.5
48 1 0.169114 0.227958 0.5
67 1 0.145965 0.271946 0.5
50 1 0.219713 0.228171 0.5
69 1 0.195386 0.271767 0.5
71 1 0.246427 0.268401 0.5
52 1 0.271153 0.225702 0.5
73 1 0.29423 0.268259 0.5
54 1 0.320148 0.225484 0.5
75 1 0.347197 0.267725 0.5
56 1 0.370188 0.223222 0.5
58 1 0.423117 0.226249 0.5
77 1 0.395721 0.268084 0.5
60 1 0.476724 0.228704 0.5
79 1 0.448003 0.268043 0.5
62 1 0.021501 0.319538 0.5
83 1 0.0491659 0.359277 0.5
64 1 0.0724317 0.317144 0.5
66 1 0.122496 0.316287 0.5
85 1 0.0976979 0.360664 0.5
68 1 0.171948 0.316276 0.5
87 1 0.148112 0.361627 0.5
70 1 0.220221 0.315144 0.5
91 1 0.244839 0.35689 0.5
89 1 0.195003 0.362385 0.5
72 1 0.270088 0.312253 0.5
93 1 0.2965 0.353961 0.5
74 1 0.319958 0.311029 0.5
95 1 0.344296 0.353838 0.5
76 1 0.368478 0.311687 0.5
78 1 0.422075 0.31354 0.5
97 1 0.395074 0.354572 0.5
80 1 0.473423 0.313417 0.5
82 1 0.0246377 0.404979 0.5
86 1 0.123637 0.405574 0.5
84 1 0.0725542 0.40573 0.5
88 1 0.170179 0.406423 0.5
90 1 0.220137 0.405443 0.5
92 1 0.268905 0.397946 0.5
94 1 0.319443 0.397169 0.5
96 1 0.368714 0.396355 0.5
98 1 0.421059 0.400378 0.5
99 1 0.446574 0.355798 0.5
100 1 0.470111 0.402799 0.5
101 1 0.00272916 0.474783 0.5
103 1 0.0471345 0.448958 0.5
119 1 0.443006 0.445583 0.5
105 1 0.0699632 0.49416 0.5
107 1 0.0967168 0.448947 0.5
108 1 0.117645 0.492713 0.5
110 1 0.168491 0.4976 0.5
109 1 0.146293 0.448361 0.5
120 1 0.46598 0.491713 0.5
111 1 0.195744 0.454784 0.5
112 1 0.244632 0.454079 0.5
291 1 0.498689 0.359459 0.5
113 1 0.291665 0.440298 0.5
114 1 0.310574 0.483561 0.5
115 1 0.341789 0.441859 0.5
116 1 0.367812 0.485509 0.5
118 1 0.416205 0.487259 0.5
117 1 0.391767 0.444016 0.5
311 1 0.492549 0.44918 0.5
104 1 0.0462953 0.568187 0.5
106 1 0.0870734 0.539728 0.5
127 1 0.109575 0.582371 0.5
129 1 0.137825 0.539036 0.5
131 1 0.190168 0.542049 0.5
134 1 0.241571 0.548744 0.5
136 1 0.293159 0.556091 0.5
137 1 0.336342 0.523628 0.5
138 1 0.35294 0.568143 0.5
139 1 0.386122 0.529531 0.5
331 1 0.433536 0.534294 0.5
333 1 0.483049 0.537274 0.5
123 1 0.0211835 0.612426 0.5
125 1 0.0691852 0.619344 0.5
130 1 0.160635 0.585736 0.5
128 1 0.129149 0.626848 0.5
151 1 0.176903 0.634505 0.5
132 1 0.208281 0.58965 0.5
153 1 0.228055 0.636525 0.5
155 1 0.257405 0.595779 0.5
157 1 0.313168 0.602082 0.5
156 1 0.281116 0.641938 0.5
159 1 0.365268 0.613836 0.5
140 1 0.403276 0.575612 0.5
351 1 0.413687 0.624121 0.5
332 1 0.450741 0.582468 0.5
353 1 0.462528 0.629663 0.5
124 1 0.0420299 0.661643 0.5
143 1 0.0153385 0.70388 0.5
126 1 0.0953128 0.668954 0.5
145 1 0.062777 0.706346 0.5
147 1 0.114016 0.713302 0.5
149 1 0.144935 0.671831 0.5
150 1 0.162757 0.72132 0.5
152 1 0.19674 0.678416 0.5
154 1 0.245769 0.68347 0.5
177 1 0.295964 0.688533 0.5
158 1 0.330204 0.650304 0.5
179 1 0.342509 0.699332 0.5
160 1 0.378954 0.661022 0.5
352 1 0.428924 0.670184 0.5
371 1 0.393117 0.707852 0.5
373 1 0.478289 0.676985 0.5
144 1 0.0361703 0.752604 0.5
146 1 0.0841899 0.75405 0.5
148 1 0.132745 0.761121 0.5
171 1 0.181936 0.766941 0.5
173 1 0.212888 0.725404 0.5
174 1 0.230686 0.773663 0.5
175 1 0.261274 0.731168 0.5
176 1 0.277202 0.778394 0.5
178 1 0.309082 0.737058 0.5
180 1 0.357656 0.749161 0.5
199 1 0.326017 0.786738 0.5
372 1 0.441993 0.716516 0.5
391 1 0.410524 0.751443 0.5
135 1 0.26855 0.506488 0.5
393 1 0.489432 0.726847 0.5
392 1 0.458366 0.76675 0.5
163 1 0.0062102 0.797444 0.5
165 1 0.0550843 0.798987 0.5
164 1 0.0253421 0.844322 0.5
167 1 0.101349 0.802995 0.5
166 1 0.0720975 0.848697 0.5
168 1 0.121569 0.852432 0.5
169 1 0.151205 0.809074 0.5
172 1 0.199627 0.81328 0.5
195 1 0.247089 0.819286 0.5
193 1 0.216582 0.860363 0.5
197 1 0.29619 0.825454 0.5
210 1 0.344875 0.833617 0.5
200 1 0.37355 0.793763 0.5
411 1 0.421474 0.797349 0.5
185 1 0.0477168 0.894895 0.5
187 1 0.0935649 0.894287 0.5
170 1 0.168542 0.857542 0.5
189 1 0.14156 0.90334 0.5
191 1 0.190713 0.905016 0.5
194 1 0.23687 0.909428 0.5
209 1 0.283168 0.913957 0.5
196 1 0.265831 0.863791 0.5
198 1 0.312658 0.872779 0.5
186 1 0.0648457 0.940987 0.5
184 1 0.0159808 0.936464 0.5
203 1 0.0385658 0.984497 0.5
188 1 0.111477 0.940828 0.5
204 1 0.0869939 0.987889 0.5
205 1 0.133489 0.993274 0.5
206 1 0.180418 0.99706 0.5
190 1 0.160187 0.951025 0.5
192 1 0.207477 0.952532 0.5
207 1 0.231203 1.00052 0.5
208 1 0.254251 0.956042 0.5
102 1 0.0273796 0.520523 0.5
334 1 0.498903 0.584302 0.5
133 1 0.219184 0.500095 0.5
211 2 0.5 9.14238e-05 0.5
212 2 0.525 0.0458033 0.5
213 2 0.55 9.14238e-05 0.5
214 2 0.575 0.0458033 0.5
215 2 0.6 9.14238e-05 0.5
216 2 0.625 0.0458033 0.5
217 2 0.65 9.14238e-05 0.5
218 2 0.675 0.0458033 0.5
219 2 0.7 9.14238e-05 0.5
220 2 0.725 0.0458033 0.5
221 2 0.75 9.14238e-05 0.5
222 2 0.775 0.0458033 0.5
223 2 0.8 9.14238e-05 0.5
224 2 0.825 0.0458033 0.5
225 2 0.85 9.14238e-05 0.5
226 2 0.875 0.0458033 0.5
227 2 0.9 9.14238e-05 0.5
228 2 0.925 0.0458033 0.5
229 2 0.95 9.14238e-05 0.5
230 2 0.975 0.0458033 0.5
231 2 0.5 0.0915152 0.5
233 2 0.55 0.0915152 0.5
232 1 0.524664 0.137757 0.5
235 2 0.6 0.0915152 0.5
234 1 0.57558 0.136313 0.5
236 1 0.626173 0.138554 0.5
237 2 0.65 0.0915152 0.5
238 1 0.677289 0.135947 0.5
239 2 0.7 0.0915152 0.5
240 1 0.725764 0.137834 0.5
241 2 0.75 0.0915152 0.5
243 2 0.8 0.0915152 0.5
242 1 0.775033 0.137307 0.5
245 2 0.85 0.0915152 0.5
244 1 0.825581 0.137141 0.5
246 1 0.872815 0.137552 0.5
247 2 0.9 0.0915152 0.5
248 1 0.923342 0.13861 0.5
249 2 0.95 0.0915152 0.5
250 1 0.973312 0.13825 0.5
253 1 0.554954 0.183252 0.5
61 1 0.996771 0.2756 0.5
255 1 0.605051 0.184292 0.5
257 1 0.653 0.185656 0.5
259 1 0.699909 0.185093 0.5
261 1 0.753869 0.183525 0.5
263 1 0.801792 0.181931 0.5
265 1 0.851573 0.186369 0.5
267 1 0.900422 0.186266 0.5
269 1 0.95013 0.184346 0.5
329 1 0.953984 0.466196 0.5
252 1 0.527727 0.226202 0.5
273 1 0.552093 0.271749 0.5
325 1 0.853194 0.462431 0.5
254 1 0.57843 0.229315 0.5
275 1 0.603389 0.274279 0.5
256 1 0.62792 0.230011 0.5
258 1 0.677443 0.231941 0.5
277 1 0.649675 0.275971 0.5
260 1 0.728901 0.228281 0.5
279 1 0.701966 0.275075 0.5
281 1 0.750924 0.277108 0.5
262 1 0.775978 0.229245 0.5
283 1 0.800875 0.275438 0.5
264 1 0.826175 0.231326 0.5
285 1 0.850035 0.274965 0.5
266 1 0.874391 0.229928 0.5
268 1 0.926623 0.228751 0.5
287 1 0.899013 0.273706 0.5
270 1 0.973309 0.229903 0.5
289 1 0.948665 0.276506 0.5
327 1 0.905236 0.46561 0.5
272 1 0.52802 0.316673 0.5
274 1 0.57708 0.317975 0.5
276 1 0.626725 0.320602 0.5
278 1 0.677846 0.319104 0.5
280 1 0.724668 0.323097 0.5
282 1 0.778125 0.321185 0.5
284 1 0.826567 0.322294 0.5
286 1 0.873807 0.320116 0.5
288 1 0.921272 0.326009 0.5
307 1 0.902191 0.372714 0.5
290 1 0.970879 0.323491 0.5
309 1 0.952077 0.371864 0.5
41 1 0.99911 0.181538 0.5
293 1 0.550284 0.361255 0.5
292 1 0.52281 0.405614 0.5
323 1 0.80374 0.455875 0.5
294 1 0.574576 0.412902 0.5
295 1 0.601301 0.365134 0.5
296 1 0.625455 0.411197 0.5
297 1 0.653937 0.362495 0.5
298 1 0.676431 0.408291 0.5
299 1 0.701188 0.365471 0.5
300 1 0.728831 0.408008 0.5
301 1 0.753445 0.365023 0.5
303 1 0.807508 0.36666 0.5
302 1 0.777789 0.409185 0.5
305 1 0.853924 0.36645 0.5
304 1 0.828276 0.41401 0.5
306 1 0.877033 0.416963 0.5
308 1 0.930169 0.420068 0.5
310 1 0.98055 0.423636 0.5
313 1 0.546547 0.452906 0.5
315 1 0.599632 0.459501 0.5
317 1 0.652436 0.453341 0.5
318 1 0.683459 0.495361 0.5
319 1 0.705775 0.452669 0.5
81 1 0.99951 0.363157 0.5
321 1 0.755222 0.452457 0.5
251 1 0.49989 0.183007 0.5
312 1 0.514851 0.497444 0.5
271 1 0.502206 0.270376 0.5
320 1 0.731758 0.498055 0.5
335 1 0.533031 0.545623 0.5
322 1 0.781097 0.500783 0.5
314 1 0.562799 0.506936 0.5
336 1 0.579986 0.559114 0.5
316 1 0.612097 0.516494 0.5
337 1 0.656079 0.535438 0.5
339 1 0.706413 0.540249 0.5
341 1 0.754258 0.544104 0.5
343 1 0.801029 0.548094 0.5
345 1 0.849068 0.550398 0.5
347 1 0.897505 0.556928 0.5
349 1 0.94797 0.560705 0.5
201 1 0.940346 0.975945 0.5
355 1 0.545814 0.596475 0.5
202 1 0.987887 0.980069 0.5
356 1 0.596728 0.614519 0.5
357 1 0.625615 0.574986 0.5
338 1 0.674664 0.580537 0.5
358 1 0.643387 0.624029 0.5
340 1 0.72557 0.588909 0.5
359 1 0.696999 0.632258 0.5
361 1 0.74667 0.638458 0.5
342 1 0.775943 0.591512 0.5
363 1 0.794577 0.639376 0.5
344 1 0.824894 0.595311 0.5
365 1 0.844807 0.643004 0.5
346 1 0.871937 0.600258 0.5
348 1 0.921884 0.604182 0.5
367 1 0.89307 0.64959 0.5
369 1 0.944466 0.651922 0.5
350 1 0.972434 0.608605 0.5
122 1 0.992342 0.655143 0.5
354 1 0.511237 0.636733 0.5
374 1 0.527724 0.685504 0.5
375 1 0.559545 0.646533 0.5
377 1 0.613453 0.66442 0.5
376 1 0.575157 0.694368 0.5
378 1 0.633868 0.713175 0.5
379 1 0.665588 0.671435 0.5
360 1 0.718919 0.679686 0.5
362 1 0.768798 0.68344 0.5
364 1 0.818499 0.684964 0.5
366 1 0.868395 0.691582 0.5
368 1 0.918122 0.694545 0.5
141 1 0.968445 0.70081 0.5
394 1 0.536041 0.738154 0.5
413 1 0.549205 0.786256 0.5
395 1 0.581208 0.74606 0.5
397 1 0.624457 0.763848 0.5
399 1 0.669725 0.764371 0.5
380 1 0.689635 0.719309 0.5
381 1 0.741482 0.725215 0.5
401 1 0.71571 0.766412 0.5
383 1 0.791808 0.728483 0.5
382 1 0.763342 0.772546 0.5
384 1 0.813845 0.774317 0.5
385 1 0.841272 0.732222 0.5
386 1 0.861116 0.783352 0.5
387 1 0.889963 0.737085 0.5
389 1 0.907837 0.789145 0.5
370 1 0.937541 0.744488 0.5
142 1 0.987692 0.747639 0.5
161 1 0.956627 0.794865 0.5
396 1 0.593097 0.801202 0.5
414 1 0.641041 0.810858 0.5
398 1 0.687149 0.809924 0.5
400 1 0.734997 0.812854 0.5
415 1 0.70645 0.853887 0.5
403 1 0.783904 0.819611 0.5
405 1 0.833078 0.825737 0.5
388 1 0.878827 0.830843 0.5
390 1 0.928365 0.838157 0.5
162 1 0.979441 0.841528 0.5
416 1 0.725237 0.90457 0.5
402 1 0.753575 0.862064 0.5
404 1 0.80124 0.867741 0.5
417 1 0.775718 0.910014 0.5
407 1 0.847739 0.87404 0.5
406 1 0.824285 0.917056 0.5
408 1 0.871284 0.919746 0.5
409 1 0.900236 0.877595 0.5
410 1 0.921494 0.925191 0.5
182 1 0.967766 0.934797 0.5
181 1 0.95203 0.885009 0.5
183 1 0.998632 0.888785 0.5
418 1 0.792528 0.956465 0.5
419 1 0.841572 0.966941 0.5
420 1 0.891087 0.966382 0.5
326 1 0.876584 0.506872 0.5
324 1 0.826791 0.505996 0.5
328 1 0.92648 0.512305 0.5
330 1 0.976141 0.517924 0.5
121 1 0.997837 0.563598 0.5
412 1 0.502976 0.777564 0.5
