ITEM: TIMESTEP
55000
ITEM: NUMBER OF ATOMS
420
ITEM: BOX BOUNDS pp ss pp
0.0000000000000000e+00 2.2653923264628304e+01
-1.9618873042551413e-03 2.0503169670618938e+01
-2.8317404080785380e-01 2.8317404080785380e-01
ITEM: ATOMS id type xs ys zs
1 2 0 9.56779e-05 0.5
2 2 0.025 0.0479346 0.5
3 2 0.05 9.56779e-05 0.5
4 2 0.075 0.0479346 0.5
5 2 0.1 9.56779e-05 0.5
6 2 0.125 0.0479346 0.5
7 2 0.15 9.56779e-05 0.5
8 2 0.175 0.0479346 0.5
9 2 0.2 9.56779e-05 0.5
10 2 0.225 0.0479346 0.5
11 2 0.25 9.56779e-05 0.5
12 2 0.275 0.0479346 0.5
13 2 0.3 9.56779e-05 0.5
14 2 0.325 0.0479346 0.5
15 2 0.35 9.56779e-05 0.5
16 2 0.375 0.0479346 0.5
17 2 0.4 9.56779e-05 0.5
18 2 0.425 0.0479346 0.5
19 2 0.45 9.56779e-05 0.5
20 2 0.475 0.0479346 0.5
21 2 0 0.0957735 0.5
23 2 0.05 0.0957735 0.5
22 1 0.0263649 0.14197 0.5
25 2 0.1 0.0957735 0.5
26 1 0.126091 0.140904 0.5
27 2 0.15 0.0957735 0.5
28 1 0.17559 0.143429 0.5
29 2 0.2 0.0957735 0.5
31 2 0.25 0.0957735 0.5
33 2 0.3 0.0957735 0.5
32 1 0.277077 0.14452 0.5
35 2 0.35 0.0957735 0.5
34 1 0.327477 0.141807 0.5
37 2 0.4 0.0957735 0.5
38 1 0.426739 0.141406 0.5
39 2 0.45 0.0957735 0.5
40 1 0.476132 0.141323 0.5
43 1 0.0495549 0.190006 0.5
24 1 0.077179 0.144417 0.5
45 1 0.101095 0.190454 0.5
47 1 0.15286 0.190678 0.5
30 1 0.224792 0.142648 0.5
49 1 0.201015 0.19134 0.5
51 1 0.250722 0.191806 0.5
53 1 0.30423 0.18923 0.5
55 1 0.353018 0.191277 0.5
36 1 0.375412 0.140451 0.5
57 1 0.40104 0.188031 0.5
59 1 0.452266 0.18639 0.5
42 1 0.0254496 0.237845 0.5
63 1 0.0492821 0.283527 0.5
44 1 0.0733216 0.236624 0.5
65 1 0.0987894 0.282812 0.5
46 1 0.125634 0.235702 0.5
48 1 0.17581 0.238052 0.5
67 1 0.151991 0.285491 0.5
50 1 0.227754 0.237264 0.5
69 1 0.200543 0.284271 0.5
71 1 0.250179 0.285514 0.5
52 1 0.276989 0.2369 0.5
73 1 0.301781 0.283647 0.5
54 1 0.327723 0.236092 0.5
75 1 0.351813 0.2858 0.5
56 1 0.378144 0.2378 0.5
58 1 0.425906 0.236479 0.5
77 1 0.401391 0.285991 0.5
60 1 0.47489 0.238351 0.5
79 1 0.449748 0.285339 0.5
62 1 0.0252095 0.330087 0.5
64 1 0.0764285 0.332036 0.5
66 1 0.126542 0.329608 0.5
68 1 0.177082 0.332721 0.5
70 1 0.227568 0.331214 0.5
72 1 0.277324 0.331227 0.5
74 1 0.327049 0.330888 0.5
76 1 0.376382 0.331389 0.5
78 1 0.429195 0.333216 0.5
80 1 0.47837 0.333937 0.5
83 1 0.0502859 0.376993 0.5
82 1 0.0240601 0.423813 0.5
85 1 0.100856 0.376586 0.5
84 1 0.076354 0.422123 0.5
87 1 0.150857 0.378637 0.5
89 1 0.201826 0.378738 0.5
90 1 0.227852 0.423651 0.5
91 1 0.252804 0.37727 0.5
93 1 0.301793 0.374795 0.5
92 1 0.277795 0.421489 0.5
95 1 0.352588 0.377368 0.5
94 1 0.326099 0.421965 0.5
96 1 0.378723 0.423008 0.5
97 1 0.405907 0.378014 0.5
98 1 0.427869 0.427106 0.5
100 1 0.4765 0.426168 0.5
99 1 0.453766 0.379731 0.5
103 1 0.0505085 0.468451 0.5
86 1 0.125795 0.423885 0.5
107 1 0.100096 0.469538 0.5
88 1 0.17727 0.425653 0.5
109 1 0.151446 0.473601 0.5
111 1 0.203115 0.470905 0.5
112 1 0.252815 0.468537 0.5
113 1 0.300682 0.470443 0.5
115 1 0.349316 0.468817 0.5
117 1 0.399836 0.471352 0.5
61 1 -0.00156551 0.284169 0.5
119 1 0.453996 0.472316 0.5
102 1 0.0227305 0.519501 0.5
104 1 0.0476163 0.567918 0.5
105 1 0.0704796 0.516485 0.5
106 1 0.0999232 0.571045 0.5
108 1 0.121605 0.518037 0.5
110 1 0.17555 0.520563 0.5
129 1 0.149284 0.564842 0.5
133 1 0.225422 0.515805 0.5
131 1 0.201201 0.565214 0.5
134 1 0.252224 0.564045 0.5
135 1 0.276125 0.516539 0.5
136 1 0.301085 0.563203 0.5
114 1 0.32682 0.514701 0.5
116 1 0.375463 0.518515 0.5
137 1 0.349465 0.565606 0.5
118 1 0.427995 0.518804 0.5
139 1 0.402227 0.565446 0.5
120 1 0.478347 0.517947 0.5
331 1 0.453418 0.566575 0.5
209 1 0.350413 0.946416 0.5
123 1 0.0240241 0.613865 0.5
125 1 0.0730812 0.614152 0.5
127 1 0.1213 0.61591 0.5
130 1 0.173165 0.614145 0.5
132 1 0.22456 0.611407 0.5
155 1 0.276262 0.609846 0.5
157 1 0.325549 0.612335 0.5
138 1 0.377169 0.614225 0.5
140 1 0.426155 0.612394 0.5
332 1 0.477395 0.617481 0.5
124 1 0.0489731 0.66299 0.5
143 1 0.0273184 0.709058 0.5
126 1 0.0998409 0.662743 0.5
145 1 0.0755602 0.708191 0.5
147 1 0.125902 0.707862 0.5
128 1 0.15155 0.661337 0.5
149 1 0.175297 0.70855 0.5
151 1 0.19882 0.661423 0.5
152 1 0.226646 0.709356 0.5
153 1 0.2457 0.657518 0.5
156 1 0.298427 0.660371 0.5
154 1 0.275077 0.710943 0.5
158 1 0.349483 0.659121 0.5
179 1 0.374676 0.708584 0.5
177 1 0.324988 0.710965 0.5
159 1 0.401039 0.66069 0.5
160 1 0.42333 0.708858 0.5
351 1 0.449879 0.661354 0.5
207 1 0.275449 0.997449 0.5
352 1 0.472853 0.711579 0.5
144 1 0.0498797 0.755701 0.5
146 1 0.100968 0.754691 0.5
148 1 0.150503 0.754047 0.5
150 1 0.200825 0.754837 0.5
173 1 0.250313 0.756468 0.5
175 1 0.29942 0.758874 0.5
178 1 0.348411 0.756495 0.5
180 1 0.397397 0.757087 0.5
371 1 0.448592 0.759449 0.5
208 1 0.324646 0.996154 0.5
163 1 0.0275248 0.802336 0.5
164 1 0.0506945 0.850427 0.5
165 1 0.0771224 0.802966 0.5
166 1 0.102015 0.849779 0.5
167 1 0.128047 0.802553 0.5
169 1 0.174656 0.803392 0.5
168 1 0.151266 0.852339 0.5
171 1 0.225244 0.804232 0.5
170 1 0.203454 0.848896 0.5
172 1 0.250001 0.85247 0.5
174 1 0.276855 0.804797 0.5
195 1 0.299213 0.851123 0.5
176 1 0.327331 0.803476 0.5
197 1 0.347411 0.851689 0.5
199 1 0.376979 0.802998 0.5
391 1 0.424212 0.804354 0.5
210 1 0.400516 0.850789 0.5
411 1 0.474939 0.804177 0.5
200 1 0.450276 0.847892 0.5
194 1 0.302417 0.947932 0.5
183 1 0.0242276 0.899325 0.5
185 1 0.0752936 0.896866 0.5
187 1 0.125461 0.895855 0.5
189 1 0.176714 0.897402 0.5
191 1 0.22805 0.899696 0.5
193 1 0.277452 0.897546 0.5
196 1 0.3246 0.900416 0.5
198 1 0.374516 0.898535 0.5
184 1 0.0525969 0.94406 0.5
202 1 0.0280085 0.999911 0.5
203 1 0.0753847 0.988972 0.5
186 1 0.101916 0.943088 0.5
204 1 0.123713 0.991196 0.5
188 1 0.151699 0.945252 0.5
205 1 0.174421 0.991546 0.5
206 1 0.225675 0.994274 0.5
192 1 0.253275 0.947132 0.5
190 1 0.201828 0.945594 0.5
142 1 0.00165413 0.754927 0.5
372 1 0.499411 0.758095 0.5
182 1 0.0023169 0.950249 0.5
392 1 0.498821 0.853756 0.5
211 2 0.5 9.56779e-05 0.5
212 2 0.525 0.0479346 0.5
213 2 0.55 9.56779e-05 0.5
214 2 0.575 0.0479346 0.5
215 2 0.6 9.56779e-05 0.5
216 2 0.625 0.0479346 0.5
217 2 0.65 9.56779e-05 0.5
218 2 0.675 0.0479346 0.5
219 2 0.7 9.56779e-05 0.5
220 2 0.725 0.0479346 0.5
221 2 0.75 9.56779e-05 0.5
222 2 0.775 0.0479346 0.5
223 2 0.8 9.56779e-05 0.5
224 2 0.825 0.0479346 0.5
225 2 0.85 9.56779e-05 0.5
226 2 0.875 0.0479346 0.5
227 2 0.9 9.56779e-05 0.5
228 2 0.925 0.0479346 0.5
229 2 0.95 9.56779e-05 0.5
230 2 0.975 0.0479346 0.5
231 2 0.5 0.0957735 0.5
233 2 0.55 0.0957735 0.5
232 1 0.52732 0.143998 0.5
235 2 0.6 0.0957735 0.5
234 1 0.57796 0.142495 0.5
237 2 0.65 0.0957735 0.5
239 2 0.7 0.0957735 0.5
240 1 0.723809 0.142558 0.5
241 2 0.75 0.0957735 0.5
243 2 0.8 0.0957735 0.5
242 1 0.77467 0.143606 0.5
245 2 0.85 0.0957735 0.5
244 1 0.824334 0.142623 0.5
247 2 0.9 0.0957735 0.5
248 1 0.924523 0.145626 0.5
249 2 0.95 0.0957735 0.5
253 1 0.550306 0.18901 0.5
323 1 0.799099 0.474361 0.5
255 1 0.60082 0.189492 0.5
236 1 0.626942 0.142407 0.5
238 1 0.676023 0.143333 0.5
257 1 0.652392 0.188928 0.5
259 1 0.70104 0.190108 0.5
261 1 0.750489 0.192462 0.5
263 1 0.802673 0.189561 0.5
246 1 0.872638 0.144645 0.5
265 1 0.851254 0.190732 0.5
267 1 0.89834 0.193722 0.5
250 1 0.974085 0.14339 0.5
269 1 0.94905 0.195082 0.5
319 1 0.699072 0.474457 0.5
252 1 0.525766 0.238318 0.5
273 1 0.551474 0.283421 0.5
254 1 0.57539 0.234526 0.5
275 1 0.5998 0.28158 0.5
256 1 0.62688 0.238298 0.5
258 1 0.677205 0.238519 0.5
277 1 0.649946 0.284605 0.5
260 1 0.723938 0.237948 0.5
279 1 0.697433 0.288635 0.5
281 1 0.749049 0.284202 0.5
262 1 0.774406 0.238754 0.5
283 1 0.797255 0.284507 0.5
264 1 0.825079 0.238778 0.5
266 1 0.872878 0.238549 0.5
285 1 0.849544 0.283451 0.5
268 1 0.92429 0.243597 0.5
287 1 0.89849 0.28677 0.5
270 1 0.976914 0.238136 0.5
289 1 0.952903 0.285117 0.5
272 1 0.527723 0.335409 0.5
327 1 0.895659 0.47328 0.5
274 1 0.575134 0.330093 0.5
276 1 0.623661 0.330293 0.5
278 1 0.676405 0.338767 0.5
280 1 0.725792 0.334928 0.5
282 1 0.774724 0.332749 0.5
284 1 0.825927 0.332233 0.5
286 1 0.87332 0.331599 0.5
288 1 0.924019 0.331928 0.5
290 1 0.972902 0.331065 0.5
329 1 0.947551 0.472772 0.5
293 1 0.552834 0.379252 0.5
292 1 0.529169 0.425988 0.5
325 1 0.848975 0.475612 0.5
295 1 0.602474 0.380229 0.5
296 1 0.627024 0.429044 0.5
294 1 0.577538 0.425452 0.5
297 1 0.651798 0.383433 0.5
298 1 0.677261 0.42975 0.5
299 1 0.700046 0.382968 0.5
300 1 0.725224 0.429572 0.5
301 1 0.749081 0.380544 0.5
303 1 0.799196 0.380714 0.5
302 1 0.776084 0.429756 0.5
305 1 0.850232 0.378607 0.5
304 1 0.823003 0.427952 0.5
306 1 0.873068 0.423339 0.5
308 1 0.920341 0.427782 0.5
307 1 0.899129 0.376991 0.5
310 1 0.974581 0.42424 0.5
309 1 0.948169 0.379203 0.5
321 1 0.750965 0.475281 0.5
313 1 0.551627 0.476242 0.5
315 1 0.601693 0.475646 0.5
317 1 0.64873 0.476171 0.5
311 1 0.502829 0.474223 0.5
291 1 0.501928 0.381915 0.5
251 1 0.500662 0.191857 0.5
271 1 0.499616 0.285533 0.5
101 1 0.998243 0.472219 0.5
81 1 0.99719 0.376575 0.5
41 1 0.997369 0.191656 0.5
312 1 0.526002 0.521441 0.5
335 1 0.549253 0.568363 0.5
314 1 0.577083 0.522718 0.5
336 1 0.59998 0.571851 0.5
316 1 0.626678 0.527955 0.5
318 1 0.675714 0.520053 0.5
337 1 0.651763 0.571278 0.5
320 1 0.724611 0.522746 0.5
339 1 0.702242 0.569544 0.5
341 1 0.749676 0.571599 0.5
322 1 0.774903 0.523496 0.5
343 1 0.800892 0.571933 0.5
324 1 0.823643 0.522028 0.5
345 1 0.847606 0.568642 0.5
326 1 0.871657 0.521709 0.5
328 1 0.920299 0.522471 0.5
347 1 0.895944 0.567643 0.5
330 1 0.972325 0.520615 0.5
333 1 0.500402 0.567321 0.5
349 1 0.946502 0.569077 0.5
334 1 0.526036 0.616992 0.5
355 1 0.57541 0.617096 0.5
357 1 0.626315 0.618773 0.5
338 1 0.676646 0.618525 0.5
340 1 0.723739 0.619036 0.5
342 1 0.773422 0.617617 0.5
344 1 0.825363 0.620896 0.5
346 1 0.872689 0.615214 0.5
348 1 0.924813 0.614631 0.5
350 1 0.974673 0.616517 0.5
354 1 0.553023 0.665394 0.5
373 1 0.525404 0.709631 0.5
356 1 0.602815 0.663874 0.5
375 1 0.576414 0.710827 0.5
377 1 0.625871 0.711688 0.5
358 1 0.651616 0.666129 0.5
379 1 0.677274 0.712863 0.5
359 1 0.700236 0.665821 0.5
360 1 0.726383 0.7131 0.5
361 1 0.751512 0.665735 0.5
363 1 0.800535 0.665049 0.5
362 1 0.776226 0.713522 0.5
365 1 0.852755 0.667369 0.5
364 1 0.8262 0.712013 0.5
366 1 0.879954 0.709572 0.5
367 1 0.902299 0.659891 0.5
368 1 0.928905 0.709478 0.5
369 1 0.951335 0.66254 0.5
141 1 0.97696 0.707876 0.5
410 1 0.952501 0.949264 0.5
374 1 0.552546 0.758505 0.5
376 1 0.601448 0.756092 0.5
378 1 0.651426 0.758879 0.5
380 1 0.701149 0.759637 0.5
381 1 0.751467 0.762084 0.5
383 1 0.801107 0.758121 0.5
385 1 0.851812 0.757494 0.5
387 1 0.902696 0.755649 0.5
370 1 0.952482 0.754332 0.5
121 1 0.998661 0.567261 0.5
393 1 0.52607 0.802763 0.5
412 1 0.548205 0.851304 0.5
394 1 0.57752 0.803766 0.5
413 1 0.598869 0.855417 0.5
395 1 0.625104 0.806964 0.5
397 1 0.679717 0.807686 0.5
396 1 0.649335 0.856127 0.5
401 1 0.727734 0.808411 0.5
399 1 0.700609 0.854288 0.5
400 1 0.750923 0.854377 0.5
382 1 0.776978 0.806276 0.5
403 1 0.80195 0.85157 0.5
384 1 0.826831 0.804693 0.5
405 1 0.85207 0.85097 0.5
386 1 0.877725 0.801941 0.5
389 1 0.929063 0.801709 0.5
388 1 0.900954 0.851204 0.5
161 1 0.977809 0.803163 0.5
390 1 0.952316 0.850038 0.5
162 1 1.00124 0.851494 0.5
414 1 0.678407 0.907099 0.5
398 1 0.726617 0.902552 0.5
402 1 0.78001 0.900748 0.5
404 1 0.828732 0.898136 0.5
407 1 0.875517 0.898835 0.5
409 1 0.930267 0.900114 0.5
181 1 0.97666 0.901138 0.5
415 1 0.752446 0.948245 0.5
417 1 0.802366 0.946634 0.5
416 1 0.774889 1.00013 0.5
406 1 0.850855 0.944611 0.5
418 1 0.826631 0.991852 0.5
419 1 0.878362 0.989283 0.5
408 1 0.903892 0.944681 0.5
420 1 0.925619 0.995361 0.5
201 1 0.976528 0.997044 0.5
122 1 1.00117 0.660634 0.5
353 1 0.502016 0.663465 0.5
