ITEM: TIMESTEP
49500
ITEM: NUMBER OF ATOMS
420
ITEM: BOX BOUNDS pp ss pp
0.0000000000000000e+00 2.2653923264628304e+01
-1.9618873042551413e-03 2.0433160523860113e+01
-2.8317404080785380e-01 2.8317404080785380e-01
ITEM: ATOMS id type xs ys zs
1 2 0 9.60057e-05 0.5
2 2 0.025 0.0480988 0.5
3 2 0.05 9.60057e-05 0.5
4 2 0.075 0.0480988 0.5
5 2 0.1 9.60057e-05 0.5
6 2 0.125 0.0480988 0.5
7 2 0.15 9.60057e-05 0.5
8 2 0.175 0.0480988 0.5
9 2 0.2 9.60057e-05 0.5
10 2 0.225 0.0480988 0.5
11 2 0.25 9.60057e-05 0.5
12 2 0.275 0.0480988 0.5
13 2 0.3 9.60057e-05 0.5
14 2 0.325 0.0480988 0.5
15 2 0.35 9.60057e-05 0.5
16 2 0.375 0.0480988 0.5
17 2 0.4 9.60057e-05 0.5
18 2 0.425 0.0480988 0.5
19 2 0.45 9.60057e-05 0.5
20 2 0.475 0.0480988 0.5
21 2 0 0.0961017 0.5
23 2 0.05 0.0961017 0.5
25 2 0.1 0.0961017 0.5
26 1 0.123877 0.142016 0.5
27 2 0.15 0.0961017 0.5
28 1 0.171667 0.140779 0.5
29 2 0.2 0.0961017 0.5
31 2 0.25 0.0961017 0.5
33 2 0.3 0.0961017 0.5
35 2 0.35 0.0961017 0.5
37 2 0.4 0.0961017 0.5
39 2 0.45 0.0961017 0.5
40 1 0.473237 0.142576 0.5
22 1 0.0226356 0.146503 0.5
43 1 0.0497901 0.190891 0.5
291 1 0.497156 0.382139 0.5
24 1 0.0731859 0.142669 0.5
45 1 0.0986244 0.191831 0.5
47 1 0.148751 0.190849 0.5
30 1 0.224623 0.142116 0.5
49 1 0.198982 0.186021 0.5
51 1 0.248292 0.188446 0.5
32 1 0.276827 0.144727 0.5
53 1 0.300747 0.190056 0.5
34 1 0.326633 0.143002 0.5
36 1 0.375798 0.143186 0.5
55 1 0.350189 0.192955 0.5
38 1 0.424872 0.141905 0.5
57 1 0.398901 0.193923 0.5
59 1 0.44885 0.189547 0.5
271 1 0.499556 0.284635 0.5
42 1 0.0231289 0.23834 0.5
311 1 0.498632 0.474335 0.5
44 1 0.0737834 0.237748 0.5
46 1 0.125227 0.23499 0.5
48 1 0.173413 0.235894 0.5
50 1 0.222579 0.235509 0.5
69 1 0.20006 0.283495 0.5
52 1 0.272481 0.231863 0.5
73 1 0.298641 0.281186 0.5
54 1 0.326066 0.240787 0.5
56 1 0.376294 0.239605 0.5
58 1 0.424202 0.242153 0.5
60 1 0.47349 0.237946 0.5
63 1 0.0482987 0.285636 0.5
62 1 0.0227915 0.332918 0.5
65 1 0.101346 0.282772 0.5
64 1 0.0742485 0.330189 0.5
66 1 0.125704 0.329251 0.5
67 1 0.151505 0.285544 0.5
68 1 0.175321 0.33096 0.5
71 1 0.247207 0.281098 0.5
70 1 0.224153 0.328923 0.5
72 1 0.273576 0.326444 0.5
75 1 0.349648 0.285849 0.5
74 1 0.325026 0.329632 0.5
76 1 0.37331 0.332594 0.5
77 1 0.401254 0.289431 0.5
78 1 0.423281 0.336419 0.5
79 1 0.451181 0.286072 0.5
80 1 0.475919 0.332488 0.5
83 1 0.0486888 0.37754 0.5
82 1 0.0253563 0.425416 0.5
119 1 0.443221 0.476127 0.5
85 1 0.100082 0.375889 0.5
86 1 0.124813 0.423746 0.5
84 1 0.0741011 0.423586 0.5
87 1 0.148704 0.376585 0.5
88 1 0.173002 0.423918 0.5
89 1 0.197877 0.377073 0.5
90 1 0.226056 0.421802 0.5
91 1 0.249615 0.376148 0.5
93 1 0.298588 0.374952 0.5
92 1 0.275494 0.422482 0.5
95 1 0.345633 0.379386 0.5
98 1 0.422612 0.425312 0.5
97 1 0.397353 0.380397 0.5
100 1 0.471985 0.428406 0.5
99 1 0.450767 0.379496 0.5
103 1 0.0494656 0.472277 0.5
107 1 0.100415 0.47427 0.5
109 1 0.151209 0.473706 0.5
111 1 0.199173 0.473264 0.5
112 1 0.24817 0.471023 0.5
113 1 0.297485 0.469839 0.5
94 1 0.324199 0.425319 0.5
96 1 0.371142 0.4255 0.5
115 1 0.346923 0.471626 0.5
117 1 0.393867 0.470435 0.5
102 1 0.0267274 0.519147 0.5
104 1 0.0516428 0.568237 0.5
105 1 0.0754712 0.517901 0.5
106 1 0.0979221 0.565532 0.5
108 1 0.124581 0.521595 0.5
110 1 0.175545 0.520221 0.5
129 1 0.147747 0.570351 0.5
133 1 0.223294 0.520564 0.5
131 1 0.198094 0.566589 0.5
134 1 0.248924 0.56819 0.5
135 1 0.270944 0.518121 0.5
136 1 0.298047 0.568573 0.5
114 1 0.320634 0.520218 0.5
116 1 0.369371 0.520567 0.5
137 1 0.346995 0.568504 0.5
118 1 0.417428 0.518324 0.5
209 1 0.350618 0.948945 0.5
120 1 0.472013 0.519635 0.5
331 1 0.442935 0.565487 0.5
123 1 0.0254441 0.615601 0.5
125 1 0.0750077 0.61643 0.5
127 1 0.124037 0.618417 0.5
130 1 0.171043 0.617121 0.5
132 1 0.222096 0.613466 0.5
155 1 0.271015 0.614782 0.5
157 1 0.322437 0.617152 0.5
138 1 0.371435 0.615547 0.5
139 1 0.394163 0.56691 0.5
140 1 0.42096 0.611309 0.5
332 1 0.469394 0.611616 0.5
124 1 0.04983 0.662723 0.5
143 1 0.025528 0.71182 0.5
126 1 0.0976579 0.664907 0.5
145 1 0.0765175 0.712374 0.5
147 1 0.125106 0.709586 0.5
128 1 0.151051 0.665832 0.5
149 1 0.175002 0.710579 0.5
151 1 0.200474 0.661511 0.5
152 1 0.223856 0.709813 0.5
153 1 0.249132 0.66103 0.5
156 1 0.297816 0.664826 0.5
154 1 0.271734 0.712184 0.5
158 1 0.349295 0.662236 0.5
177 1 0.321792 0.710796 0.5
179 1 0.371519 0.707452 0.5
159 1 0.397733 0.660633 0.5
160 1 0.419561 0.709562 0.5
351 1 0.446158 0.663806 0.5
352 1 0.469024 0.709977 0.5
353 1 0.494712 0.66001 0.5
144 1 0.0471018 0.760922 0.5
146 1 0.100078 0.758233 0.5
148 1 0.148269 0.758828 0.5
150 1 0.197306 0.758271 0.5
173 1 0.245432 0.758629 0.5
175 1 0.29849 0.758841 0.5
178 1 0.348159 0.757917 0.5
180 1 0.395945 0.755906 0.5
371 1 0.446949 0.756969 0.5
333 1 0.497239 0.567992 0.5
163 1 0.0254002 0.807452 0.5
164 1 0.0502623 0.852974 0.5
165 1 0.0745146 0.804441 0.5
166 1 0.101109 0.851715 0.5
167 1 0.12484 0.806932 0.5
169 1 0.17315 0.806272 0.5
168 1 0.149844 0.856649 0.5
171 1 0.223959 0.806068 0.5
170 1 0.19713 0.853378 0.5
172 1 0.247277 0.851088 0.5
174 1 0.272819 0.805851 0.5
195 1 0.29875 0.851938 0.5
176 1 0.323 0.804287 0.5
197 1 0.347981 0.851841 0.5
199 1 0.373359 0.807954 0.5
391 1 0.421652 0.806833 0.5
210 1 0.398352 0.853412 0.5
411 1 0.471842 0.807169 0.5
200 1 0.446913 0.861473 0.5
392 1 0.496581 0.856143 0.5
183 1 0.0250844 0.901596 0.5
185 1 0.0736661 0.90042 0.5
187 1 0.124722 0.902784 0.5
189 1 0.173458 0.900261 0.5
191 1 0.225621 0.898683 0.5
193 1 0.27458 0.898311 0.5
196 1 0.324397 0.898063 0.5
198 1 0.372591 0.898721 0.5
184 1 0.0502958 0.946203 0.5
202 1 0.0249645 0.992887 0.5
203 1 0.0768564 0.994578 0.5
186 1 0.0983969 0.946066 0.5
204 1 0.125362 1.00267 0.5
188 1 0.149201 0.951795 0.5
205 1 0.172629 0.998043 0.5
190 1 0.199344 0.945058 0.5
192 1 0.248649 0.94348 0.5
206 1 0.220091 0.995619 0.5
194 1 0.298034 0.946254 0.5
207 1 0.271606 0.993124 0.5
208 1 0.319521 0.996682 0.5
372 1 0.496521 0.754682 0.5
121 1 0.0020158 0.571111 0.5
122 1 0.000936314 0.663422 0.5
211 2 0.5 9.60057e-05 0.5
212 2 0.525 0.0480988 0.5
213 2 0.55 9.60057e-05 0.5
214 2 0.575 0.0480988 0.5
215 2 0.6 9.60057e-05 0.5
216 2 0.625 0.0480988 0.5
217 2 0.65 9.60057e-05 0.5
218 2 0.675 0.0480988 0.5
219 2 0.7 9.60057e-05 0.5
220 2 0.725 0.0480988 0.5
221 2 0.75 9.60057e-05 0.5
222 2 0.775 0.0480988 0.5
223 2 0.8 9.60057e-05 0.5
224 2 0.825 0.0480988 0.5
225 2 0.85 9.60057e-05 0.5
226 2 0.875 0.0480988 0.5
227 2 0.9 9.60057e-05 0.5
228 2 0.925 0.0480988 0.5
229 2 0.95 9.60057e-05 0.5
230 2 0.975 0.0480988 0.5
231 2 0.5 0.0961017 0.5
233 2 0.55 0.0961017 0.5
235 2 0.6 0.0961017 0.5
237 2 0.65 0.0961017 0.5
239 2 0.7 0.0961017 0.5
240 1 0.722996 0.142474 0.5
241 2 0.75 0.0961017 0.5
243 2 0.8 0.0961017 0.5
245 2 0.85 0.0961017 0.5
247 2 0.9 0.0961017 0.5
248 1 0.925178 0.143436 0.5
249 2 0.95 0.0961017 0.5
250 1 0.973609 0.141624 0.5
232 1 0.526093 0.141642 0.5
253 1 0.549226 0.189886 0.5
234 1 0.573662 0.144446 0.5
255 1 0.602208 0.189131 0.5
236 1 0.62461 0.140807 0.5
238 1 0.673422 0.141867 0.5
257 1 0.650831 0.189076 0.5
259 1 0.700472 0.187911 0.5
242 1 0.77269 0.143776 0.5
261 1 0.748457 0.190456 0.5
263 1 0.796524 0.192665 0.5
244 1 0.821966 0.143847 0.5
265 1 0.846496 0.190057 0.5
246 1 0.874299 0.14193 0.5
267 1 0.897773 0.188248 0.5
269 1 0.948404 0.189004 0.5
252 1 0.523974 0.238096 0.5
273 1 0.549557 0.287905 0.5
254 1 0.576921 0.236608 0.5
275 1 0.597438 0.286669 0.5
256 1 0.623886 0.236021 0.5
258 1 0.675776 0.235515 0.5
277 1 0.650566 0.282216 0.5
260 1 0.72255 0.238763 0.5
279 1 0.699026 0.284121 0.5
281 1 0.747403 0.286369 0.5
262 1 0.771371 0.235931 0.5
283 1 0.796908 0.286055 0.5
264 1 0.820632 0.238666 0.5
285 1 0.847315 0.283186 0.5
266 1 0.87132 0.234829 0.5
268 1 0.921836 0.237216 0.5
287 1 0.895788 0.280866 0.5
270 1 0.970753 0.240051 0.5
289 1 0.943796 0.287329 0.5
272 1 0.525047 0.334402 0.5
329 1 0.950036 0.47432 0.5
274 1 0.57281 0.333754 0.5
276 1 0.622286 0.332948 0.5
278 1 0.673247 0.333692 0.5
280 1 0.723682 0.333613 0.5
282 1 0.771235 0.333102 0.5
284 1 0.821505 0.332286 0.5
286 1 0.868363 0.332637 0.5
288 1 0.918365 0.332685 0.5
290 1 0.971316 0.332825 0.5
293 1 0.547776 0.380852 0.5
292 1 0.523717 0.427828 0.5
325 1 0.846276 0.47421 0.5
294 1 0.574205 0.42711 0.5
295 1 0.597444 0.379688 0.5
296 1 0.621339 0.427991 0.5
297 1 0.648956 0.382688 0.5
298 1 0.673645 0.428583 0.5
299 1 0.698239 0.380298 0.5
300 1 0.721305 0.427888 0.5
301 1 0.747646 0.382044 0.5
303 1 0.795503 0.379066 0.5
302 1 0.770418 0.428575 0.5
305 1 0.842664 0.378985 0.5
304 1 0.819556 0.42522 0.5
306 1 0.868307 0.428232 0.5
307 1 0.893332 0.381542 0.5
308 1 0.923909 0.426851 0.5
310 1 0.973629 0.426683 0.5
309 1 0.946221 0.378055 0.5
313 1 0.547054 0.473645 0.5
327 1 0.897684 0.471126 0.5
315 1 0.595816 0.47444 0.5
317 1 0.648193 0.475115 0.5
319 1 0.697117 0.475676 0.5
323 1 0.798073 0.474451 0.5
321 1 0.749373 0.478041 0.5
81 1 0.997717 0.38111 0.5
61 1 0.997719 0.283063 0.5
251 1 0.499522 0.185975 0.5
101 1 0.999974 0.47334 0.5
41 1 0.997446 0.192781 0.5
312 1 0.52219 0.520312 0.5
335 1 0.54773 0.566256 0.5
314 1 0.573201 0.520525 0.5
336 1 0.597415 0.567437 0.5
316 1 0.624922 0.521145 0.5
318 1 0.671194 0.521798 0.5
337 1 0.649184 0.570789 0.5
320 1 0.726659 0.524655 0.5
339 1 0.700173 0.571647 0.5
341 1 0.751688 0.570479 0.5
322 1 0.775609 0.522089 0.5
343 1 0.798461 0.569986 0.5
324 1 0.825102 0.522041 0.5
345 1 0.850083 0.568228 0.5
326 1 0.875598 0.518488 0.5
328 1 0.926555 0.520513 0.5
347 1 0.900809 0.564425 0.5
330 1 0.9763 0.51968 0.5
349 1 0.951306 0.569766 0.5
201 1 0.97358 0.994443 0.5
334 1 0.520401 0.616585 0.5
355 1 0.5729 0.614802 0.5
357 1 0.623548 0.617195 0.5
338 1 0.674155 0.617565 0.5
340 1 0.726155 0.620768 0.5
342 1 0.775154 0.615014 0.5
344 1 0.825361 0.616118 0.5
346 1 0.874302 0.613566 0.5
348 1 0.924396 0.612195 0.5
350 1 0.97394 0.617063 0.5
373 1 0.518767 0.706222 0.5
354 1 0.546532 0.664861 0.5
356 1 0.596217 0.662569 0.5
375 1 0.570369 0.713312 0.5
377 1 0.623016 0.710116 0.5
358 1 0.647652 0.663537 0.5
379 1 0.675766 0.711608 0.5
359 1 0.697574 0.664044 0.5
360 1 0.723262 0.714578 0.5
361 1 0.746879 0.667369 0.5
363 1 0.795573 0.662648 0.5
362 1 0.772451 0.713972 0.5
365 1 0.848897 0.663156 0.5
364 1 0.823232 0.708722 0.5
366 1 0.871316 0.709515 0.5
367 1 0.897603 0.661754 0.5
368 1 0.92347 0.706919 0.5
369 1 0.949885 0.66169 0.5
141 1 0.972929 0.709347 0.5
410 1 0.947416 0.944825 0.5
374 1 0.544817 0.75674 0.5
376 1 0.598123 0.756007 0.5
378 1 0.647572 0.75434 0.5
380 1 0.699066 0.759182 0.5
381 1 0.747382 0.759981 0.5
383 1 0.798246 0.757143 0.5
385 1 0.849005 0.757828 0.5
387 1 0.902345 0.754443 0.5
142 1 0.998155 0.755631 0.5
370 1 0.950087 0.758839 0.5
393 1 0.521863 0.804232 0.5
412 1 0.547199 0.854657 0.5
394 1 0.573765 0.803852 0.5
413 1 0.598418 0.853059 0.5
395 1 0.622119 0.805847 0.5
397 1 0.670401 0.806712 0.5
396 1 0.645206 0.854632 0.5
401 1 0.723388 0.808917 0.5
399 1 0.692521 0.852044 0.5
400 1 0.746484 0.855788 0.5
382 1 0.772485 0.804805 0.5
403 1 0.797066 0.853358 0.5
384 1 0.826702 0.804668 0.5
405 1 0.851523 0.850257 0.5
386 1 0.875456 0.801227 0.5
389 1 0.923088 0.803798 0.5
388 1 0.899221 0.850244 0.5
162 1 1.00049 0.855572 0.5
161 1 0.974447 0.806285 0.5
390 1 0.949522 0.853039 0.5
414 1 0.672913 0.90143 0.5
398 1 0.723014 0.902724 0.5
402 1 0.772049 0.90254 0.5
404 1 0.821595 0.899924 0.5
407 1 0.872257 0.899402 0.5
409 1 0.921358 0.898462 0.5
181 1 0.976781 0.902743 0.5
415 1 0.750129 0.95287 0.5
417 1 0.797666 0.947345 0.5
416 1 0.777287 0.999741 0.5
406 1 0.848508 0.948217 0.5
418 1 0.824487 0.994998 0.5
419 1 0.873778 0.994957 0.5
420 1 0.923156 0.992395 0.5
408 1 0.89637 0.945328 0.5
182 1 1.00005 0.948494 0.5
