ITEM: TIMESTEP
17750
ITEM: NUMBER OF ATOMS
420
ITEM: BOX BOUNDS pp ss pp
0.0000000000000000e+00 2.2653923264628304e+01
-1.9618873042551413e-03 1.9794121702263354e+01
-2.8317404080785380e-01 2.8317404080785380e-01
ITEM: ATOMS id type xs ys zs
1 2 0 9.91048e-05 0.5
2 2 0.025 0.0496515 0.5
3 2 0.05 9.91048e-05 0.5
4 2 0.075 0.0496515 0.5
5 2 0.1 9.91048e-05 0.5
6 2 0.125 0.0496515 0.5
7 2 0.15 9.91048e-05 0.5
8 2 0.175 0.0496515 0.5
9 2 0.2 9.91048e-05 0.5
10 2 0.225 0.0496515 0.5
11 2 0.25 9.91048e-05 0.5
12 2 0.275 0.0496515 0.5
13 2 0.3 9.91048e-05 0.5
14 2 0.325 0.0496515 0.5
15 2 0.35 9.91048e-05 0.5
16 2 0.375 0.0496515 0.5
17 2 0.4 9.91048e-05 0.5
18 2 0.425 0.0496515 0.5
19 2 0.45 9.91048e-05 0.5
20 2 0.475 0.0496515 0.5
21 2 0 0.0992039 0.5
23 2 0.05 0.0992039 0.5
22 1 0.0234556 0.145588 0.5
25 2 0.1 0.0992039 0.5
24 1 0.0751711 0.146841 0.5
26 1 0.126235 0.144545 0.5
27 2 0.15 0.0992039 0.5
28 1 0.175287 0.144985 0.5
29 2 0.2 0.0992039 0.5
30 1 0.224121 0.147344 0.5
31 2 0.25 0.0992039 0.5
33 2 0.3 0.0992039 0.5
32 1 0.274836 0.14435 0.5
35 2 0.35 0.0992039 0.5
34 1 0.324903 0.146246 0.5
36 1 0.373666 0.146187 0.5
37 2 0.4 0.0992039 0.5
38 1 0.423857 0.145026 0.5
39 2 0.45 0.0992039 0.5
40 1 0.474279 0.14495 0.5
43 1 0.0505106 0.19225 0.5
42 1 0.0262372 0.238661 0.5
45 1 0.101266 0.193466 0.5
44 1 0.075404 0.240518 0.5
46 1 0.126402 0.241325 0.5
47 1 0.150945 0.192088 0.5
48 1 0.173759 0.239266 0.5
49 1 0.198607 0.193387 0.5
51 1 0.247953 0.192639 0.5
50 1 0.223309 0.23872 0.5
53 1 0.298988 0.192528 0.5
52 1 0.274204 0.241979 0.5
55 1 0.349481 0.192707 0.5
54 1 0.32326 0.241477 0.5
56 1 0.373553 0.239782 0.5
57 1 0.399789 0.192354 0.5
58 1 0.422767 0.241453 0.5
59 1 0.449549 0.194928 0.5
60 1 0.472954 0.245551 0.5
81 1 0.00344115 0.383521 0.5
63 1 0.0508411 0.287035 0.5
100 1 0.471259 0.433515 0.5
65 1 0.100282 0.291541 0.5
67 1 0.14915 0.288356 0.5
69 1 0.198421 0.286857 0.5
71 1 0.248011 0.28784 0.5
73 1 0.301946 0.289334 0.5
75 1 0.349267 0.290021 0.5
77 1 0.396946 0.287382 0.5
79 1 0.446614 0.289921 0.5
101 1 0.000865256 0.479717 0.5
62 1 0.0263072 0.33542 0.5
83 1 0.052609 0.386414 0.5
311 1 0.492426 0.48538 0.5
64 1 0.0743325 0.338883 0.5
66 1 0.125234 0.337598 0.5
85 1 0.0992002 0.388093 0.5
68 1 0.173998 0.336302 0.5
87 1 0.150273 0.38669 0.5
70 1 0.223912 0.333779 0.5
89 1 0.200258 0.382759 0.5
91 1 0.249761 0.381059 0.5
72 1 0.274507 0.335022 0.5
93 1 0.296851 0.382063 0.5
74 1 0.324141 0.337319 0.5
76 1 0.372809 0.338218 0.5
95 1 0.34871 0.382546 0.5
78 1 0.422993 0.33884 0.5
97 1 0.397204 0.384984 0.5
99 1 0.447886 0.38704 0.5
80 1 0.473085 0.337159 0.5
291 1 0.497556 0.385142 0.5
103 1 0.0489553 0.482766 0.5
82 1 0.0275201 0.433322 0.5
105 1 0.0973029 0.482693 0.5
84 1 0.0750662 0.438291 0.5
86 1 0.125044 0.436258 0.5
88 1 0.173888 0.435275 0.5
107 1 0.146852 0.482407 0.5
111 1 0.246474 0.481254 0.5
90 1 0.2223 0.431997 0.5
109 1 0.198848 0.481465 0.5
113 1 0.296284 0.480009 0.5
92 1 0.2713 0.43205 0.5
94 1 0.322003 0.431505 0.5
96 1 0.369185 0.433247 0.5
115 1 0.343876 0.4786 0.5
117 1 0.393895 0.481889 0.5
98 1 0.421277 0.431818 0.5
119 1 0.442229 0.48052 0.5
41 1 -0.000527319 0.192422 0.5
271 1 0.49961 0.288072 0.5
251 1 0.497523 0.193059 0.5
102 1 0.0235513 0.529834 0.5
104 1 0.0732358 0.53092 0.5
106 1 0.120063 0.530642 0.5
108 1 0.173581 0.532054 0.5
110 1 0.220465 0.528332 0.5
112 1 0.269121 0.527756 0.5
114 1 0.317609 0.52726 0.5
116 1 0.366682 0.526268 0.5
118 1 0.415141 0.531043 0.5
120 1 0.464595 0.532185 0.5
123 1 0.0474125 0.580211 0.5
122 1 0.0235946 0.62684 0.5
124 1 0.0707797 0.627636 0.5
125 1 0.0978593 0.580518 0.5
126 1 0.119604 0.628427 0.5
127 1 0.144204 0.57834 0.5
128 1 0.168543 0.628664 0.5
129 1 0.193496 0.581572 0.5
130 1 0.215846 0.628374 0.5
131 1 0.242807 0.57646 0.5
132 1 0.266299 0.624201 0.5
133 1 0.292394 0.575613 0.5
134 1 0.315214 0.623423 0.5
135 1 0.338961 0.577569 0.5
136 1 0.363927 0.623685 0.5
137 1 0.387955 0.576734 0.5
138 1 0.411625 0.624177 0.5
139 1 0.438244 0.579566 0.5
140 1 0.461166 0.62713 0.5
331 1 0.487611 0.580387 0.5
143 1 0.0449603 0.676495 0.5
142 1 0.0202974 0.725245 0.5
144 1 0.068379 0.727083 0.5
145 1 0.092553 0.680652 0.5
146 1 0.116211 0.727419 0.5
147 1 0.142273 0.677005 0.5
149 1 0.191195 0.680954 0.5
148 1 0.164036 0.728466 0.5
151 1 0.238145 0.674939 0.5
150 1 0.211373 0.731864 0.5
152 1 0.256818 0.722004 0.5
153 1 0.287637 0.67213 0.5
154 1 0.307725 0.71925 0.5
155 1 0.337796 0.669627 0.5
156 1 0.355648 0.717771 0.5
157 1 0.38565 0.670802 0.5
159 1 0.433266 0.672205 0.5
158 1 0.403779 0.718612 0.5
351 1 0.480767 0.676438 0.5
160 1 0.452396 0.722743 0.5
411 1 0.495977 0.902908 0.5
163 1 0.0415118 0.773664 0.5
165 1 0.0885216 0.776496 0.5
167 1 0.137554 0.777558 0.5
169 1 0.185905 0.779398 0.5
171 1 0.236993 0.782695 0.5
173 1 0.283157 0.767035 0.5
174 1 0.304028 0.814457 0.5
175 1 0.331634 0.768824 0.5
177 1 0.379787 0.765975 0.5
176 1 0.354481 0.813831 0.5
179 1 0.424893 0.766196 0.5
178 1 0.400018 0.81343 0.5
371 1 0.473796 0.771351 0.5
180 1 0.445932 0.814273 0.5
391 1 0.49548 0.818574 0.5
162 1 0.0143602 0.821534 0.5
164 1 0.0605484 0.826038 0.5
183 1 0.036276 0.875012 0.5
166 1 0.111781 0.826875 0.5
185 1 0.0839589 0.874846 0.5
187 1 0.131559 0.875538 0.5
168 1 0.158838 0.828052 0.5
189 1 0.180875 0.87958 0.5
170 1 0.20837 0.828336 0.5
172 1 0.262415 0.839121 0.5
191 1 0.228627 0.880455 0.5
193 1 0.279116 0.89023 0.5
195 1 0.323339 0.861114 0.5
197 1 0.371392 0.86617 0.5
199 1 0.420431 0.864522 0.5
200 1 0.46658 0.862063 0.5
184 1 0.0597516 0.926058 0.5
202 1 0.0312721 0.974653 0.5
182 1 0.0107414 0.924318 0.5
186 1 0.10729 0.923122 0.5
203 1 0.0820877 0.974395 0.5
204 1 0.127937 0.972889 0.5
188 1 0.153135 0.926017 0.5
205 1 0.173727 0.97731 0.5
190 1 0.201288 0.929737 0.5
192 1 0.250233 0.933869 0.5
206 1 0.22053 0.982266 0.5
207 1 0.265251 0.984554 0.5
194 1 0.298683 0.943371 0.5
208 1 0.30785 1.00328 0.5
209 1 0.345009 0.962899 0.5
196 1 0.338138 0.910645 0.5
198 1 0.394103 0.914804 0.5
210 1 0.443474 0.910418 0.5
211 2 0.5 9.91048e-05 0.5
212 2 0.525 0.0496515 0.5
213 2 0.55 9.91048e-05 0.5
214 2 0.575 0.0496515 0.5
215 2 0.6 9.91048e-05 0.5
216 2 0.625 0.0496515 0.5
217 2 0.65 9.91048e-05 0.5
218 2 0.675 0.0496515 0.5
219 2 0.7 9.91048e-05 0.5
220 2 0.725 0.0496515 0.5
221 2 0.75 9.91048e-05 0.5
222 2 0.775 0.0496515 0.5
223 2 0.8 9.91048e-05 0.5
224 2 0.825 0.0496515 0.5
225 2 0.85 9.91048e-05 0.5
226 2 0.875 0.0496515 0.5
227 2 0.9 9.91048e-05 0.5
228 2 0.925 0.0496515 0.5
229 2 0.95 9.91048e-05 0.5
230 2 0.975 0.0496515 0.5
231 2 0.5 0.0992039 0.5
233 2 0.55 0.0992039 0.5
232 1 0.523779 0.145726 0.5
235 2 0.6 0.0992039 0.5
234 1 0.57353 0.145637 0.5
236 1 0.625423 0.145517 0.5
237 2 0.65 0.0992039 0.5
238 1 0.674588 0.146631 0.5
239 2 0.7 0.0992039 0.5
240 1 0.724411 0.145782 0.5
241 2 0.75 0.0992039 0.5
243 2 0.8 0.0992039 0.5
242 1 0.775473 0.146243 0.5
245 2 0.85 0.0992039 0.5
244 1 0.824979 0.14674 0.5
247 2 0.9 0.0992039 0.5
246 1 0.875153 0.145596 0.5
248 1 0.926288 0.146601 0.5
249 2 0.95 0.0992039 0.5
250 1 0.975816 0.147044 0.5
253 1 0.549493 0.193281 0.5
252 1 0.523991 0.239574 0.5
255 1 0.601895 0.19681 0.5
254 1 0.571554 0.242934 0.5
256 1 0.620674 0.244886 0.5
257 1 0.648906 0.198918 0.5
259 1 0.697593 0.193951 0.5
261 1 0.749545 0.192027 0.5
263 1 0.798656 0.194978 0.5
265 1 0.850489 0.193305 0.5
264 1 0.825921 0.240664 0.5
267 1 0.901575 0.192656 0.5
266 1 0.874933 0.23925 0.5
268 1 0.925685 0.240362 0.5
269 1 0.950204 0.193069 0.5
270 1 0.975477 0.239214 0.5
329 1 0.954613 0.480601 0.5
273 1 0.548115 0.289144 0.5
275 1 0.597952 0.292189 0.5
258 1 0.674839 0.245774 0.5
277 1 0.646644 0.292945 0.5
260 1 0.723075 0.242686 0.5
279 1 0.695558 0.295118 0.5
281 1 0.74759 0.289328 0.5
262 1 0.774475 0.240594 0.5
283 1 0.801116 0.285483 0.5
282 1 0.775393 0.33123 0.5
285 1 0.851191 0.288904 0.5
287 1 0.900616 0.288821 0.5
289 1 0.951157 0.289028 0.5
272 1 0.523828 0.337562 0.5
293 1 0.546683 0.38793 0.5
274 1 0.574346 0.340163 0.5
276 1 0.621285 0.3452 0.5
295 1 0.592772 0.392726 0.5
278 1 0.673532 0.346969 0.5
297 1 0.642535 0.395244 0.5
299 1 0.689775 0.398161 0.5
280 1 0.724554 0.340575 0.5
301 1 0.758683 0.377891 0.5
303 1 0.805867 0.380854 0.5
284 1 0.825534 0.334111 0.5
305 1 0.853655 0.381972 0.5
286 1 0.877468 0.335393 0.5
288 1 0.926596 0.33544 0.5
307 1 0.902638 0.382834 0.5
290 1 0.975865 0.335699 0.5
309 1 0.950993 0.383755 0.5
292 1 0.518141 0.438245 0.5
294 1 0.566073 0.438524 0.5
313 1 0.53934 0.48645 0.5
315 1 0.589544 0.491575 0.5
296 1 0.614106 0.443175 0.5
298 1 0.662062 0.446222 0.5
300 1 0.732051 0.420382 0.5
319 1 0.707311 0.465849 0.5
302 1 0.782447 0.424533 0.5
321 1 0.755796 0.468404 0.5
323 1 0.80538 0.472269 0.5
304 1 0.831368 0.42763 0.5
325 1 0.852142 0.476653 0.5
308 1 0.928696 0.433024 0.5
306 1 0.879907 0.430285 0.5
327 1 0.900589 0.47892 0.5
310 1 0.977714 0.43031 0.5
317 1 0.63749 0.498305 0.5
61 1 1.00085 0.284488 0.5
314 1 0.559855 0.536424 0.5
312 1 0.513813 0.533788 0.5
316 1 0.607046 0.544882 0.5
337 1 0.654489 0.552375 0.5
318 1 0.683949 0.511339 0.5
410 1 0.963447 0.919321 0.5
320 1 0.731496 0.513556 0.5
339 1 0.705775 0.557643 0.5
341 1 0.753932 0.563295 0.5
322 1 0.779788 0.519939 0.5
343 1 0.803209 0.567306 0.5
324 1 0.829504 0.523456 0.5
326 1 0.877001 0.525059 0.5
345 1 0.85245 0.570932 0.5
328 1 0.926691 0.526553 0.5
347 1 0.902943 0.574437 0.5
330 1 0.9752 0.529047 0.5
333 1 0.534634 0.583925 0.5
334 1 0.556508 0.634009 0.5
332 1 0.508737 0.630208 0.5
335 1 0.580149 0.589749 0.5
355 1 0.602861 0.640437 0.5
336 1 0.628346 0.595349 0.5
338 1 0.680357 0.601601 0.5
357 1 0.655869 0.646074 0.5
340 1 0.73008 0.608617 0.5
359 1 0.703277 0.651393 0.5
361 1 0.751938 0.658133 0.5
342 1 0.777543 0.610236 0.5
344 1 0.825751 0.616965 0.5
346 1 0.87671 0.618516 0.5
348 1 0.925516 0.623971 0.5
121 1 0.998995 0.580797 0.5
349 1 0.950809 0.575318 0.5
350 1 0.973122 0.626095 0.5
353 1 0.529136 0.681139 0.5
373 1 0.552081 0.730252 0.5
354 1 0.576585 0.684727 0.5
356 1 0.627247 0.689238 0.5
375 1 0.603084 0.734006 0.5
358 1 0.676171 0.694264 0.5
377 1 0.650873 0.740162 0.5
360 1 0.72662 0.703084 0.5
363 1 0.800239 0.663079 0.5
362 1 0.775734 0.709352 0.5
364 1 0.82391 0.711097 0.5
365 1 0.849749 0.665682 0.5
366 1 0.872233 0.718324 0.5
367 1 0.899207 0.669979 0.5
368 1 0.919546 0.72017 0.5
369 1 0.948189 0.674887 0.5
141 1 0.997993 0.674433 0.5
370 1 0.971437 0.723956 0.5
372 1 0.525378 0.77601 0.5
374 1 0.576366 0.776503 0.5
376 1 0.626909 0.783377 0.5
378 1 0.674489 0.793287 0.5
379 1 0.700104 0.748172 0.5
381 1 0.747283 0.754254 0.5
380 1 0.7219 0.802802 0.5
383 1 0.795996 0.758441 0.5
382 1 0.770364 0.807234 0.5
384 1 0.81917 0.811167 0.5
385 1 0.846206 0.764301 0.5
386 1 0.869811 0.819502 0.5
387 1 0.894303 0.766802 0.5
388 1 0.917512 0.818247 0.5
389 1 0.942785 0.77049 0.5
161 1 0.994651 0.771814 0.5
393 1 0.552839 0.82175 0.5
392 1 0.523574 0.861417 0.5
394 1 0.573485 0.870854 0.5
395 1 0.600079 0.82755 0.5
396 1 0.620517 0.878023 0.5
397 1 0.648414 0.83742 0.5
399 1 0.695671 0.84608 0.5
398 1 0.668148 0.890029 0.5
401 1 0.743791 0.85677 0.5
400 1 0.714895 0.898213 0.5
403 1 0.792567 0.860783 0.5
402 1 0.765592 0.906889 0.5
405 1 0.839777 0.863354 0.5
407 1 0.892596 0.869494 0.5
409 1 0.940726 0.867994 0.5
390 1 0.968642 0.819772 0.5
181 1 0.989515 0.869701 0.5
412 1 0.543328 0.909701 0.5
413 1 0.590755 0.919573 0.5
414 1 0.638445 0.934512 0.5
415 1 0.686262 0.943347 0.5
416 1 0.733423 0.953232 0.5
404 1 0.813847 0.911426 0.5
417 1 0.78466 0.956651 0.5
406 1 0.862107 0.915474 0.5
418 1 0.832991 0.962519 0.5
419 1 0.884623 0.966889 0.5
408 1 0.913576 0.918516 0.5
420 1 0.933831 0.968386 0.5
201 1 0.98199 0.969132 0.5
352 1 0.501762 0.727098 0.5
