ITEM: TIMESTEP
16750
ITEM: NUMBER OF ATOMS
420
ITEM: BOX BOUNDS pp ss pp
0.0000000000000000e+00 2.2653923264628304e+01
-1.9618873042551413e-03 1.9350402384670328e+01
-2.8317404080785380e-01 2.8317404080785380e-01
ITEM: ATOMS id type xs ys zs
1 2 0 0.000101377 0.5
2 2 0.025 0.0507899 0.5
3 2 0.05 0.000101377 0.5
4 2 0.075 0.0507899 0.5
5 2 0.1 0.000101377 0.5
6 2 0.125 0.0507899 0.5
7 2 0.15 0.000101377 0.5
8 2 0.175 0.0507899 0.5
9 2 0.2 0.000101377 0.5
10 2 0.225 0.0507899 0.5
11 2 0.25 0.000101377 0.5
12 2 0.275 0.0507899 0.5
13 2 0.3 0.000101377 0.5
14 2 0.325 0.0507899 0.5
15 2 0.35 0.000101377 0.5
16 2 0.375 0.0507899 0.5
17 2 0.4 0.000101377 0.5
18 2 0.425 0.0507899 0.5
19 2 0.45 0.000101377 0.5
20 2 0.475 0.0507899 0.5
21 2 0 0.101479 0.5
23 2 0.05 0.101479 0.5
22 1 0.0258129 0.149446 0.5
25 2 0.1 0.101479 0.5
24 1 0.0751441 0.150165 0.5
26 1 0.125183 0.150427 0.5
27 2 0.15 0.101479 0.5
28 1 0.17404 0.150484 0.5
29 2 0.2 0.101479 0.5
30 1 0.223876 0.149769 0.5
31 2 0.25 0.101479 0.5
33 2 0.3 0.101479 0.5
32 1 0.273654 0.152666 0.5
35 2 0.35 0.101479 0.5
34 1 0.322457 0.150274 0.5
36 1 0.372158 0.150578 0.5
37 2 0.4 0.101479 0.5
38 1 0.423116 0.150648 0.5
39 2 0.45 0.101479 0.5
40 1 0.477145 0.153051 0.5
43 1 0.0505398 0.198547 0.5
42 1 0.0237344 0.245461 0.5
45 1 0.0978202 0.199521 0.5
44 1 0.073419 0.248336 0.5
46 1 0.122411 0.248253 0.5
47 1 0.147209 0.200018 0.5
48 1 0.171339 0.248695 0.5
49 1 0.196954 0.199562 0.5
51 1 0.245581 0.198961 0.5
50 1 0.221004 0.245202 0.5
53 1 0.297084 0.200287 0.5
52 1 0.272157 0.248988 0.5
55 1 0.347406 0.199106 0.5
54 1 0.320939 0.249697 0.5
56 1 0.371073 0.249372 0.5
57 1 0.398563 0.197993 0.5
58 1 0.419059 0.249549 0.5
59 1 0.447488 0.200063 0.5
60 1 0.469416 0.252592 0.5
251 1 0.497314 0.204261 0.5
63 1 0.0478032 0.294557 0.5
65 1 0.0980181 0.29492 0.5
67 1 0.146748 0.297629 0.5
69 1 0.196852 0.299612 0.5
71 1 0.244288 0.296082 0.5
73 1 0.29227 0.298023 0.5
75 1 0.343499 0.298133 0.5
77 1 0.391426 0.302158 0.5
79 1 0.439528 0.29998 0.5
271 1 0.48959 0.301214 0.5
62 1 0.0232491 0.347572 0.5
83 1 0.0487921 0.39447 0.5
64 1 0.0728679 0.344595 0.5
66 1 0.121592 0.347991 0.5
85 1 0.0949478 0.395485 0.5
68 1 0.169299 0.345139 0.5
87 1 0.14377 0.395404 0.5
70 1 0.218456 0.348705 0.5
89 1 0.190629 0.39714 0.5
91 1 0.240362 0.397321 0.5
72 1 0.266485 0.345622 0.5
93 1 0.288566 0.395871 0.5
74 1 0.314656 0.3472 0.5
76 1 0.364919 0.348515 0.5
95 1 0.337604 0.395767 0.5
78 1 0.414921 0.350229 0.5
97 1 0.388188 0.398345 0.5
99 1 0.435744 0.402238 0.5
80 1 0.462918 0.349135 0.5
291 1 0.485095 0.398225 0.5
103 1 0.0419934 0.495338 0.5
82 1 0.0203877 0.44713 0.5
105 1 0.092935 0.494299 0.5
84 1 0.0703904 0.444981 0.5
86 1 0.119861 0.445017 0.5
88 1 0.16627 0.447228 0.5
107 1 0.141332 0.496976 0.5
111 1 0.237025 0.494582 0.5
90 1 0.213502 0.444468 0.5
109 1 0.188126 0.495565 0.5
113 1 0.28518 0.497444 0.5
92 1 0.262606 0.446363 0.5
94 1 0.31034 0.444722 0.5
117 1 0.383407 0.494939 0.5
96 1 0.359344 0.445843 0.5
100 1 0.459732 0.44882 0.5
98 1 0.40945 0.448483 0.5
119 1 0.432913 0.496333 0.5
41 1 -9.33882e-06 0.196432 0.5
115 1 0.333381 0.49437 0.5
311 1 0.481638 0.499582 0.5
102 1 0.0160101 0.544989 0.5
104 1 0.0656708 0.544294 0.5
106 1 0.115332 0.544866 0.5
108 1 0.164062 0.546407 0.5
110 1 0.210903 0.546037 0.5
112 1 0.258586 0.543013 0.5
114 1 0.305304 0.546325 0.5
116 1 0.354714 0.541796 0.5
118 1 0.405149 0.543403 0.5
120 1 0.454506 0.547115 0.5
123 1 0.037938 0.597049 0.5
122 1 0.00952375 0.644273 0.5
124 1 0.0600578 0.646766 0.5
125 1 0.0864474 0.595717 0.5
126 1 0.107286 0.647419 0.5
127 1 0.132936 0.595578 0.5
128 1 0.154267 0.647069 0.5
129 1 0.179796 0.598203 0.5
130 1 0.203336 0.646252 0.5
131 1 0.231509 0.595953 0.5
132 1 0.251921 0.645956 0.5
133 1 0.278477 0.594605 0.5
134 1 0.302047 0.642859 0.5
135 1 0.328371 0.594331 0.5
136 1 0.353355 0.641657 0.5
137 1 0.378301 0.592129 0.5
138 1 0.401101 0.640805 0.5
139 1 0.426974 0.595685 0.5
140 1 0.449715 0.644354 0.5
331 1 0.47641 0.597768 0.5
332 1 0.499113 0.647094 0.5
143 1 0.0336707 0.694205 0.5
142 1 0.00699795 0.742225 0.5
144 1 0.057247 0.74494 0.5
145 1 0.0832875 0.696377 0.5
146 1 0.105189 0.746723 0.5
147 1 0.131768 0.696827 0.5
149 1 0.18039 0.697805 0.5
148 1 0.154219 0.749831 0.5
151 1 0.22757 0.696386 0.5
150 1 0.201055 0.746825 0.5
152 1 0.248828 0.747063 0.5
153 1 0.277049 0.693625 0.5
154 1 0.298039 0.74349 0.5
155 1 0.325407 0.693564 0.5
157 1 0.373491 0.692541 0.5
156 1 0.346711 0.742611 0.5
159 1 0.422283 0.690114 0.5
158 1 0.395709 0.739706 0.5
351 1 0.470322 0.695979 0.5
160 1 0.442518 0.743481 0.5
352 1 0.491861 0.745686 0.5
163 1 0.030141 0.793867 0.5
165 1 0.0783408 0.794408 0.5
167 1 0.127418 0.795719 0.5
169 1 0.174936 0.800304 0.5
171 1 0.224417 0.797001 0.5
173 1 0.272643 0.792373 0.5
175 1 0.320744 0.791337 0.5
177 1 0.368491 0.788675 0.5
176 1 0.342878 0.837901 0.5
179 1 0.416806 0.78991 0.5
371 1 0.46676 0.791303 0.5
164 1 0.0516866 0.845 0.5
183 1 0.0255238 0.894648 0.5
411 1 0.485802 0.930802 0.5
166 1 0.100167 0.845958 0.5
185 1 0.0747837 0.896722 0.5
187 1 0.123497 0.896311 0.5
168 1 0.14864 0.848528 0.5
189 1 0.171997 0.897785 0.5
170 1 0.198596 0.847049 0.5
172 1 0.248932 0.844542 0.5
191 1 0.221409 0.895939 0.5
174 1 0.295717 0.839616 0.5
193 1 0.268316 0.896784 0.5
195 1 0.317642 0.888387 0.5
197 1 0.365198 0.88839 0.5
178 1 0.390645 0.838924 0.5
180 1 0.440687 0.839157 0.5
199 1 0.414784 0.884107 0.5
391 1 0.491199 0.839343 0.5
200 1 0.461548 0.887081 0.5
184 1 0.0470897 0.945808 0.5
202 1 0.0198714 0.992037 0.5
186 1 0.094753 0.947431 0.5
203 1 0.0666956 1.00005 0.5
204 1 0.116367 0.997705 0.5
188 1 0.145364 0.948035 0.5
205 1 0.169549 0.99738 0.5
190 1 0.195638 0.949367 0.5
192 1 0.243222 0.946882 0.5
206 1 0.220697 0.997481 0.5
207 1 0.267353 0.99722 0.5
194 1 0.291326 0.945902 0.5
208 1 0.315434 0.996868 0.5
209 1 0.359816 0.980031 0.5
196 1 0.338253 0.93498 0.5
198 1 0.388202 0.935978 0.5
210 1 0.43898 0.93611 0.5
162 1 0.00352766 0.843208 0.5
211 2 0.5 0.000101377 0.5
212 2 0.525 0.0507899 0.5
213 2 0.55 0.000101377 0.5
214 2 0.575 0.0507899 0.5
215 2 0.6 0.000101377 0.5
216 2 0.625 0.0507899 0.5
217 2 0.65 0.000101377 0.5
218 2 0.675 0.0507899 0.5
219 2 0.7 0.000101377 0.5
220 2 0.725 0.0507899 0.5
221 2 0.75 0.000101377 0.5
222 2 0.775 0.0507899 0.5
223 2 0.8 0.000101377 0.5
224 2 0.825 0.0507899 0.5
225 2 0.85 0.000101377 0.5
226 2 0.875 0.0507899 0.5
227 2 0.9 0.000101377 0.5
228 2 0.925 0.0507899 0.5
229 2 0.95 0.000101377 0.5
230 2 0.975 0.0507899 0.5
231 2 0.5 0.101479 0.5
233 2 0.55 0.101479 0.5
232 1 0.524048 0.155701 0.5
235 2 0.6 0.101479 0.5
234 1 0.573423 0.155726 0.5
236 1 0.622155 0.155319 0.5
237 2 0.65 0.101479 0.5
238 1 0.673654 0.152963 0.5
239 2 0.7 0.101479 0.5
240 1 0.722967 0.153031 0.5
241 2 0.75 0.101479 0.5
243 2 0.8 0.101479 0.5
242 1 0.770081 0.150989 0.5
245 2 0.85 0.101479 0.5
244 1 0.824211 0.150595 0.5
247 2 0.9 0.101479 0.5
246 1 0.876033 0.150444 0.5
248 1 0.927804 0.147788 0.5
249 2 0.95 0.101479 0.5
250 1 0.97848 0.148328 0.5
253 1 0.546278 0.205285 0.5
252 1 0.5198 0.254465 0.5
255 1 0.59467 0.204752 0.5
254 1 0.56886 0.256969 0.5
257 1 0.646946 0.20488 0.5
259 1 0.695592 0.206642 0.5
261 1 0.745182 0.206228 0.5
263 1 0.793908 0.200155 0.5
265 1 0.852153 0.19473 0.5
264 1 0.827449 0.24097 0.5
267 1 0.902153 0.193753 0.5
266 1 0.878471 0.242758 0.5
268 1 0.926825 0.243311 0.5
269 1 0.952083 0.196317 0.5
270 1 0.973908 0.245563 0.5
310 1 0.974035 0.442235 0.5
273 1 0.540345 0.304081 0.5
256 1 0.619128 0.257816 0.5
275 1 0.589329 0.305717 0.5
258 1 0.66951 0.256275 0.5
277 1 0.638542 0.308391 0.5
260 1 0.71844 0.257281 0.5
279 1 0.684861 0.308172 0.5
281 1 0.738945 0.308405 0.5
262 1 0.766531 0.254929 0.5
283 1 0.803506 0.28744 0.5
282 1 0.780614 0.334627 0.5
285 1 0.852062 0.290448 0.5
287 1 0.899808 0.290391 0.5
289 1 0.948759 0.291927 0.5
101 1 0.994155 0.496046 0.5
272 1 0.512201 0.352967 0.5
293 1 0.535137 0.40382 0.5
274 1 0.562942 0.352592 0.5
276 1 0.613246 0.35606 0.5
295 1 0.585191 0.401212 0.5
278 1 0.661418 0.359707 0.5
297 1 0.635178 0.409339 0.5
299 1 0.683651 0.414074 0.5
280 1 0.709764 0.364882 0.5
301 1 0.754121 0.379831 0.5
303 1 0.802884 0.387818 0.5
284 1 0.828173 0.33576 0.5
305 1 0.851357 0.385121 0.5
286 1 0.877665 0.338809 0.5
288 1 0.927478 0.341124 0.5
307 1 0.901507 0.388743 0.5
290 1 0.973612 0.344541 0.5
309 1 0.948052 0.393617 0.5
81 1 0.999655 0.394805 0.5
292 1 0.507411 0.453848 0.5
294 1 0.556949 0.45391 0.5
308 1 0.92262 0.439316 0.5
296 1 0.604885 0.455348 0.5
329 1 0.943398 0.488796 0.5
298 1 0.65485 0.461239 0.5
300 1 0.730493 0.427283 0.5
319 1 0.702118 0.469882 0.5
302 1 0.777428 0.430484 0.5
321 1 0.750818 0.477923 0.5
323 1 0.798037 0.479907 0.5
304 1 0.825867 0.434761 0.5
306 1 0.87485 0.435509 0.5
325 1 0.848655 0.484319 0.5
327 1 0.89663 0.487975 0.5
61 1 0.999212 0.296253 0.5
201 1 0.972203 0.987768 0.5
314 1 0.555096 0.551919 0.5
316 1 0.603027 0.558624 0.5
337 1 0.649087 0.562001 0.5
318 1 0.675852 0.515573 0.5
317 1 0.627218 0.509239 0.5
320 1 0.723552 0.52153 0.5
339 1 0.697468 0.570588 0.5
341 1 0.745327 0.574084 0.5
322 1 0.772426 0.528046 0.5
343 1 0.793386 0.57893 0.5
324 1 0.821249 0.532169 0.5
326 1 0.868925 0.536457 0.5
345 1 0.843611 0.582848 0.5
328 1 0.917916 0.539182 0.5
330 1 0.966537 0.542521 0.5
333 1 0.526106 0.597567 0.5
334 1 0.548705 0.650798 0.5
335 1 0.57372 0.604269 0.5
355 1 0.598542 0.656016 0.5
336 1 0.625513 0.609132 0.5
338 1 0.674696 0.617963 0.5
357 1 0.647241 0.66246 0.5
340 1 0.722395 0.622517 0.5
359 1 0.696626 0.669494 0.5
342 1 0.770717 0.627456 0.5
344 1 0.8186 0.631132 0.5
346 1 0.866298 0.634045 0.5
347 1 0.891015 0.585773 0.5
348 1 0.913433 0.636451 0.5
121 1 0.990049 0.593878 0.5
349 1 0.940279 0.589772 0.5
350 1 0.961398 0.640942 0.5
353 1 0.519323 0.696049 0.5
373 1 0.545043 0.74507 0.5
354 1 0.570601 0.6999 0.5
356 1 0.620049 0.7073 0.5
375 1 0.59302 0.750233 0.5
358 1 0.67034 0.715607 0.5
360 1 0.719453 0.721172 0.5
361 1 0.743715 0.675187 0.5
363 1 0.792317 0.679015 0.5
362 1 0.7702 0.729769 0.5
364 1 0.817744 0.731154 0.5
365 1 0.842137 0.680915 0.5
366 1 0.864668 0.734804 0.5
367 1 0.889224 0.686388 0.5
369 1 0.936637 0.690489 0.5
368 1 0.914461 0.736701 0.5
141 1 0.985834 0.690779 0.5
370 1 0.959752 0.740364 0.5
372 1 0.518323 0.792614 0.5
374 1 0.567278 0.796698 0.5
376 1 0.616704 0.80361 0.5
377 1 0.640846 0.7568 0.5
379 1 0.692229 0.764425 0.5
378 1 0.663383 0.809526 0.5
381 1 0.739626 0.777037 0.5
380 1 0.710429 0.821803 0.5
383 1 0.790607 0.782017 0.5
382 1 0.760302 0.830284 0.5
384 1 0.810249 0.835002 0.5
385 1 0.836363 0.786009 0.5
387 1 0.884733 0.784776 0.5
389 1 0.933428 0.790924 0.5
161 1 0.983026 0.789591 0.5
393 1 0.541385 0.841586 0.5
392 1 0.513406 0.885549 0.5
394 1 0.564029 0.890346 0.5
395 1 0.590243 0.847511 0.5
396 1 0.610655 0.9018 0.5
397 1 0.637712 0.855584 0.5
399 1 0.683214 0.869782 0.5
398 1 0.658291 0.91813 0.5
401 1 0.732897 0.875802 0.5
400 1 0.706393 0.921193 0.5
403 1 0.778934 0.884344 0.5
386 1 0.85894 0.833425 0.5
405 1 0.830798 0.887175 0.5
388 1 0.906406 0.838091 0.5
407 1 0.877296 0.889693 0.5
409 1 0.926985 0.887916 0.5
390 1 0.956715 0.840183 0.5
181 1 0.977691 0.889643 0.5
412 1 0.535004 0.932844 0.5
413 1 0.583269 0.944529 0.5
414 1 0.63166 0.970077 0.5
415 1 0.681256 0.970529 0.5
402 1 0.754739 0.934745 0.5
416 1 0.727987 0.981071 0.5
404 1 0.803285 0.934463 0.5
417 1 0.775517 0.982645 0.5
406 1 0.85405 0.939935 0.5
418 1 0.826194 0.987099 0.5
419 1 0.873091 0.98972 0.5
408 1 0.90276 0.93857 0.5
420 1 0.925128 0.988189 0.5
313 1 0.533386 0.502399 0.5
410 1 0.949874 0.938118 0.5
315 1 0.581195 0.506337 0.5
182 1 0.999208 0.941626 0.5
312 1 0.505689 0.547727 0.5
