ITEM: TIMESTEP
10000
ITEM: NUMBER OF ATOMS
420
ITEM: BOX BOUNDS pp ss pp
0.0000000000000000e+00 2.2653923264628304e+01
-1.9618873042551413e-03 1.9499113347024995e+01
-2.8317404080785380e-01 2.8317404080785380e-01
ITEM: ATOMS id type xs ys zs
1 2 0 0.000100604 0.5
2 2 0.025 0.0504026 0.5
3 2 0.05 0.000100604 0.5
4 2 0.075 0.0504026 0.5
5 2 0.1 0.000100604 0.5
6 2 0.125 0.0504026 0.5
7 2 0.15 0.000100604 0.5
8 2 0.175 0.0504026 0.5
9 2 0.2 0.000100604 0.5
10 2 0.225 0.0504026 0.5
11 2 0.25 0.000100604 0.5
12 2 0.275 0.0504026 0.5
13 2 0.3 0.000100604 0.5
14 2 0.325 0.0504026 0.5
15 2 0.35 0.000100604 0.5
16 2 0.375 0.0504026 0.5
17 2 0.4 0.000100604 0.5
18 2 0.425 0.0504026 0.5
19 2 0.45 0.000100604 0.5
20 2 0.475 0.0504026 0.5
21 2 0 0.100705 0.5
23 2 0.05 0.100705 0.5
22 1 0.0265189 0.149134 0.5
25 2 0.1 0.100705 0.5
24 1 0.0761277 0.14969 0.5
26 1 0.12791 0.151444 0.5
27 2 0.15 0.100705 0.5
28 1 0.175324 0.151844 0.5
29 2 0.2 0.100705 0.5
30 1 0.224619 0.149562 0.5
31 2 0.25 0.100705 0.5
33 2 0.3 0.100705 0.5
32 1 0.273912 0.15082 0.5
35 2 0.35 0.100705 0.5
34 1 0.322716 0.151408 0.5
36 1 0.372652 0.152933 0.5
37 2 0.4 0.100705 0.5
38 1 0.42659 0.151153 0.5
39 2 0.45 0.100705 0.5
40 1 0.476387 0.151311 0.5
43 1 0.0523337 0.199498 0.5
45 1 0.100364 0.200884 0.5
44 1 0.0751781 0.250495 0.5
47 1 0.149718 0.201121 0.5
48 1 0.173946 0.249217 0.5
49 1 0.200381 0.201147 0.5
50 1 0.225709 0.249256 0.5
51 1 0.247694 0.199352 0.5
53 1 0.295095 0.200437 0.5
52 1 0.274279 0.248751 0.5
55 1 0.344051 0.202217 0.5
54 1 0.323748 0.251477 0.5
56 1 0.375892 0.25178 0.5
57 1 0.400995 0.201294 0.5
59 1 0.448825 0.201412 0.5
60 1 0.473251 0.249722 0.5
105 1 0.0987068 0.496582 0.5
42 1 0.026432 0.248958 0.5
63 1 0.052131 0.300124 0.5
46 1 0.125272 0.25259 0.5
65 1 0.0995425 0.298081 0.5
67 1 0.149944 0.301463 0.5
69 1 0.199245 0.297824 0.5
71 1 0.249352 0.301082 0.5
73 1 0.298253 0.299242 0.5
75 1 0.348878 0.299557 0.5
58 1 0.425044 0.251593 0.5
77 1 0.401298 0.302385 0.5
79 1 0.451216 0.298712 0.5
103 1 0.048305 0.494726 0.5
62 1 0.026746 0.347412 0.5
83 1 0.0495697 0.398754 0.5
64 1 0.0756656 0.350564 0.5
85 1 0.1014 0.39733 0.5
66 1 0.124551 0.348674 0.5
68 1 0.17413 0.348689 0.5
87 1 0.150396 0.397939 0.5
70 1 0.22491 0.352082 0.5
89 1 0.197292 0.398047 0.5
91 1 0.247989 0.402204 0.5
72 1 0.275308 0.352635 0.5
93 1 0.298947 0.399815 0.5
74 1 0.32266 0.346476 0.5
76 1 0.371094 0.348745 0.5
95 1 0.347603 0.395549 0.5
78 1 0.423508 0.348969 0.5
97 1 0.399895 0.39674 0.5
80 1 0.47296 0.346288 0.5
99 1 0.448018 0.396207 0.5
82 1 0.0234898 0.445677 0.5
84 1 0.0722757 0.446869 0.5
86 1 0.126911 0.447213 0.5
41 1 0.00240807 0.199585 0.5
88 1 0.173544 0.444787 0.5
107 1 0.150441 0.494161 0.5
90 1 0.224312 0.448095 0.5
111 1 0.249002 0.496033 0.5
109 1 0.196993 0.496012 0.5
113 1 0.297583 0.496777 0.5
92 1 0.272626 0.448035 0.5
94 1 0.324942 0.446295 0.5
96 1 0.373304 0.444533 0.5
115 1 0.347622 0.497112 0.5
98 1 0.421822 0.444436 0.5
117 1 0.397074 0.496762 0.5
119 1 0.449657 0.492796 0.5
100 1 0.473022 0.442654 0.5
81 1 0.0012633 0.396548 0.5
271 1 0.498956 0.297167 0.5
291 1 0.498254 0.393772 0.5
61 1 0.00217683 0.29755 0.5
311 1 0.498252 0.49188 0.5
102 1 0.0229705 0.544534 0.5
196 1 0.372354 0.93287 0.5
104 1 0.071404 0.54234 0.5
106 1 0.121918 0.544784 0.5
108 1 0.171277 0.543232 0.5
110 1 0.223204 0.54341 0.5
112 1 0.271654 0.543654 0.5
114 1 0.321644 0.544178 0.5
116 1 0.370694 0.544713 0.5
118 1 0.422634 0.545634 0.5
120 1 0.472905 0.542428 0.5
123 1 0.0496613 0.593955 0.5
122 1 0.0267154 0.642808 0.5
210 1 0.451062 0.966951 0.5
125 1 0.0966368 0.592409 0.5
124 1 0.0729579 0.642666 0.5
126 1 0.120609 0.646608 0.5
127 1 0.145213 0.597227 0.5
128 1 0.169931 0.647185 0.5
129 1 0.194282 0.593233 0.5
130 1 0.220349 0.641325 0.5
131 1 0.245329 0.593852 0.5
133 1 0.294364 0.592405 0.5
132 1 0.270744 0.641543 0.5
135 1 0.343481 0.592214 0.5
134 1 0.31918 0.63888 0.5
136 1 0.367394 0.639912 0.5
137 1 0.394337 0.592549 0.5
138 1 0.418859 0.640607 0.5
139 1 0.446611 0.59484 0.5
140 1 0.469664 0.642184 0.5
391 1 0.496284 0.870324 0.5
143 1 0.0503309 0.696988 0.5
200 1 0.470349 0.91686 0.5
145 1 0.0982567 0.69588 0.5
144 1 0.0755218 0.746852 0.5
147 1 0.147198 0.695509 0.5
146 1 0.123741 0.743335 0.5
148 1 0.171958 0.741598 0.5
149 1 0.197725 0.692968 0.5
150 1 0.218446 0.742445 0.5
151 1 0.244832 0.690167 0.5
153 1 0.293154 0.690638 0.5
152 1 0.267957 0.740256 0.5
155 1 0.340777 0.690008 0.5
154 1 0.318113 0.739128 0.5
156 1 0.367307 0.732613 0.5
157 1 0.393265 0.686843 0.5
158 1 0.414912 0.735217 0.5
159 1 0.44615 0.68965 0.5
160 1 0.477332 0.736392 0.5
142 1 0.0258795 0.746775 0.5
163 1 0.0495215 0.795282 0.5
209 1 0.399365 0.980231 0.5
165 1 0.097716 0.795466 0.5
167 1 0.14709 0.795115 0.5
169 1 0.196454 0.790151 0.5
171 1 0.246168 0.791878 0.5
173 1 0.294383 0.788745 0.5
175 1 0.342782 0.786994 0.5
177 1 0.388561 0.781002 0.5
179 1 0.442595 0.780798 0.5
162 1 0.0231578 0.847784 0.5
183 1 0.0464008 0.895686 0.5
208 1 0.34874 0.985108 0.5
164 1 0.0722668 0.84761 0.5
185 1 0.0967721 0.894893 0.5
166 1 0.120602 0.843878 0.5
168 1 0.172406 0.843444 0.5
187 1 0.145349 0.894127 0.5
170 1 0.220666 0.842076 0.5
189 1 0.194585 0.894616 0.5
191 1 0.245355 0.890346 0.5
172 1 0.268742 0.840912 0.5
193 1 0.294763 0.890918 0.5
174 1 0.318605 0.840544 0.5
176 1 0.369803 0.830999 0.5
195 1 0.345341 0.887302 0.5
178 1 0.418215 0.82559 0.5
197 1 0.392542 0.879334 0.5
180 1 0.470199 0.826222 0.5
199 1 0.443272 0.874713 0.5
194 1 0.321256 0.939546 0.5
182 1 0.0227586 0.943074 0.5
202 1 0.0480094 0.995391 0.5
198 1 0.419335 0.925939 0.5
184 1 0.0721628 0.946653 0.5
203 1 0.0968895 0.998145 0.5
186 1 0.122477 0.946344 0.5
204 1 0.14969 0.998761 0.5
188 1 0.172401 0.944482 0.5
205 1 0.200762 0.988288 0.5
190 1 0.221999 0.938491 0.5
206 1 0.250475 0.992481 0.5
207 1 0.30044 0.991251 0.5
192 1 0.270374 0.940315 0.5
411 1 0.50024 0.962044 0.5
351 1 0.500316 0.688941 0.5
331 1 0.494873 0.590516 0.5
161 1 0.000928752 0.797135 0.5
141 1 0.0043959 0.694748 0.5
121 1 0.00194777 0.596714 0.5
211 2 0.5 0.000100604 0.5
212 2 0.525 0.0504026 0.5
213 2 0.55 0.000100604 0.5
214 2 0.575 0.0504026 0.5
215 2 0.6 0.000100604 0.5
216 2 0.625 0.0504026 0.5
217 2 0.65 0.000100604 0.5
218 2 0.675 0.0504026 0.5
219 2 0.7 0.000100604 0.5
220 2 0.725 0.0504026 0.5
221 2 0.75 0.000100604 0.5
222 2 0.775 0.0504026 0.5
223 2 0.8 0.000100604 0.5
224 2 0.825 0.0504026 0.5
225 2 0.85 0.000100604 0.5
226 2 0.875 0.0504026 0.5
227 2 0.9 0.000100604 0.5
228 2 0.925 0.0504026 0.5
229 2 0.95 0.000100604 0.5
230 2 0.975 0.0504026 0.5
231 2 0.5 0.100705 0.5
233 2 0.55 0.100705 0.5
232 1 0.526231 0.14954 0.5
235 2 0.6 0.100705 0.5
234 1 0.574518 0.148607 0.5
236 1 0.62489 0.148198 0.5
237 2 0.65 0.100705 0.5
238 1 0.674293 0.150303 0.5
239 2 0.7 0.100705 0.5
240 1 0.723603 0.148258 0.5
241 2 0.75 0.100705 0.5
243 2 0.8 0.100705 0.5
242 1 0.774571 0.147695 0.5
245 2 0.85 0.100705 0.5
244 1 0.82394 0.150143 0.5
246 1 0.875457 0.147852 0.5
247 2 0.9 0.100705 0.5
248 1 0.925937 0.148504 0.5
249 2 0.95 0.100705 0.5
250 1 0.977692 0.150771 0.5
253 1 0.551009 0.197244 0.5
255 1 0.59959 0.199506 0.5
254 1 0.577913 0.245943 0.5
257 1 0.650794 0.19906 0.5
259 1 0.698213 0.198425 0.5
260 1 0.724733 0.244323 0.5
261 1 0.749162 0.197147 0.5
263 1 0.797948 0.197004 0.5
262 1 0.773491 0.25083 0.5
265 1 0.849658 0.198283 0.5
267 1 0.898096 0.198967 0.5
269 1 0.950101 0.197613 0.5
304 1 0.826328 0.446562 0.5
252 1 0.523238 0.249977 0.5
273 1 0.549748 0.295999 0.5
275 1 0.602845 0.296663 0.5
256 1 0.626541 0.246948 0.5
258 1 0.676707 0.249033 0.5
277 1 0.650509 0.297636 0.5
279 1 0.700646 0.297703 0.5
281 1 0.747334 0.299335 0.5
283 1 0.797299 0.298043 0.5
266 1 0.873401 0.250369 0.5
264 1 0.823238 0.247123 0.5
285 1 0.848551 0.298988 0.5
268 1 0.927224 0.248495 0.5
287 1 0.900646 0.298537 0.5
270 1 0.974828 0.246431 0.5
289 1 0.950284 0.296264 0.5
327 1 0.898697 0.498443 0.5
272 1 0.524237 0.344295 0.5
293 1 0.547958 0.395611 0.5
308 1 0.926519 0.447045 0.5
274 1 0.576836 0.342966 0.5
295 1 0.59667 0.396124 0.5
276 1 0.624577 0.346797 0.5
278 1 0.672903 0.348384 0.5
297 1 0.645395 0.396055 0.5
280 1 0.721451 0.351634 0.5
299 1 0.695268 0.398509 0.5
282 1 0.773303 0.347422 0.5
301 1 0.749574 0.398185 0.5
303 1 0.799801 0.393505 0.5
284 1 0.825287 0.348527 0.5
305 1 0.853078 0.395831 0.5
286 1 0.87544 0.347561 0.5
288 1 0.927179 0.346173 0.5
307 1 0.901315 0.398158 0.5
290 1 0.974838 0.34458 0.5
309 1 0.952433 0.395595 0.5
310 1 0.975912 0.447354 0.5
292 1 0.523581 0.443671 0.5
313 1 0.549167 0.492262 0.5
294 1 0.572807 0.444981 0.5
315 1 0.599859 0.491809 0.5
296 1 0.620764 0.443172 0.5
298 1 0.671579 0.445381 0.5
317 1 0.649342 0.491593 0.5
300 1 0.723184 0.448166 0.5
319 1 0.697752 0.495305 0.5
321 1 0.749519 0.494491 0.5
302 1 0.778639 0.444799 0.5
323 1 0.798731 0.496783 0.5
306 1 0.875206 0.446758 0.5
325 1 0.850423 0.497838 0.5
329 1 0.950554 0.496085 0.5
101 1 0.998857 0.498344 0.5
251 1 0.503651 0.200249 0.5
312 1 0.523726 0.543597 0.5
314 1 0.574161 0.540032 0.5
316 1 0.624783 0.540725 0.5
318 1 0.674965 0.543283 0.5
320 1 0.72508 0.542626 0.5
322 1 0.774446 0.543735 0.5
324 1 0.823705 0.544417 0.5
326 1 0.872788 0.546766 0.5
328 1 0.924983 0.544044 0.5
330 1 0.974109 0.547465 0.5
333 1 0.552244 0.591339 0.5
332 1 0.522619 0.638032 0.5
335 1 0.600397 0.588632 0.5
334 1 0.575586 0.63827 0.5
336 1 0.624296 0.638329 0.5
337 1 0.648996 0.591401 0.5
338 1 0.674791 0.638596 0.5
339 1 0.702309 0.592518 0.5
340 1 0.727585 0.63997 0.5
341 1 0.750769 0.593441 0.5
343 1 0.800409 0.590716 0.5
342 1 0.778381 0.641599 0.5
345 1 0.850397 0.595299 0.5
344 1 0.82616 0.646006 0.5
347 1 0.90234 0.595263 0.5
346 1 0.87747 0.644644 0.5
348 1 0.925236 0.644108 0.5
349 1 0.95367 0.595085 0.5
350 1 0.974246 0.643768 0.5
201 1 0.997573 0.989068 0.5
353 1 0.552157 0.685912 0.5
352 1 0.526835 0.732946 0.5
355 1 0.602735 0.687165 0.5
354 1 0.575431 0.733982 0.5
357 1 0.650753 0.687118 0.5
356 1 0.629341 0.735301 0.5
358 1 0.679306 0.734939 0.5
359 1 0.699563 0.6855 0.5
360 1 0.727246 0.736131 0.5
361 1 0.753574 0.689598 0.5
363 1 0.802092 0.691252 0.5
362 1 0.776257 0.739784 0.5
365 1 0.853064 0.695725 0.5
364 1 0.825607 0.741548 0.5
366 1 0.876227 0.743162 0.5
367 1 0.902593 0.693853 0.5
369 1 0.952722 0.695706 0.5
410 1 0.97224 0.942017 0.5
373 1 0.551394 0.781607 0.5
375 1 0.603532 0.783226 0.5
377 1 0.654734 0.783536 0.5
379 1 0.700921 0.785546 0.5
381 1 0.752379 0.787235 0.5
383 1 0.800397 0.790476 0.5
385 1 0.848205 0.791073 0.5
368 1 0.924052 0.743998 0.5
387 1 0.897254 0.792709 0.5
370 1 0.977201 0.743168 0.5
389 1 0.94937 0.791961 0.5
372 1 0.528102 0.830342 0.5
393 1 0.554194 0.875206 0.5
374 1 0.577305 0.828397 0.5
395 1 0.604504 0.877608 0.5
376 1 0.627503 0.828961 0.5
378 1 0.67654 0.835534 0.5
397 1 0.651179 0.884054 0.5
380 1 0.725699 0.834589 0.5
399 1 0.698696 0.886915 0.5
382 1 0.774366 0.839422 0.5
401 1 0.749528 0.887629 0.5
403 1 0.797758 0.888304 0.5
384 1 0.824787 0.840785 0.5
405 1 0.848051 0.89133 0.5
386 1 0.87366 0.841798 0.5
388 1 0.921244 0.841958 0.5
407 1 0.898114 0.891767 0.5
390 1 0.974217 0.844295 0.5
409 1 0.945944 0.891606 0.5
392 1 0.522816 0.917197 0.5
412 1 0.547978 0.967421 0.5
394 1 0.576451 0.924037 0.5
413 1 0.596458 0.977943 0.5
396 1 0.624576 0.931032 0.5
398 1 0.673964 0.936125 0.5
414 1 0.646479 0.985368 0.5
415 1 0.698882 0.98782 0.5
400 1 0.723092 0.935017 0.5
416 1 0.746984 0.984788 0.5
417 1 0.798681 0.989043 0.5
402 1 0.771091 0.937084 0.5
418 1 0.847231 0.990105 0.5
404 1 0.81935 0.9369 0.5
406 1 0.872795 0.940698 0.5
419 1 0.896601 0.989091 0.5
408 1 0.922145 0.942785 0.5
420 1 0.944159 0.992282 0.5
181 1 0.998836 0.894143 0.5
371 1 0.50136 0.783498 0.5
