ITEM: TIMESTEP
7750
ITEM: NUMBER OF ATOMS
420
ITEM: BOX BOUNDS pp ss pp
0.0000000000000000e+00 2.2653923264628304e+01
-1.9618873042551413e-03 1.9613001849023615e+01
-2.8317404080785380e-01 2.8317404080785380e-01
ITEM: ATOMS id type xs ys zs
1 2 0 0.00010002 0.5
2 2 0.025 0.05011 0.5
3 2 0.05 0.00010002 0.5
4 2 0.075 0.05011 0.5
5 2 0.1 0.00010002 0.5
6 2 0.125 0.05011 0.5
7 2 0.15 0.00010002 0.5
8 2 0.175 0.05011 0.5
9 2 0.2 0.00010002 0.5
10 2 0.225 0.05011 0.5
11 2 0.25 0.00010002 0.5
12 2 0.275 0.05011 0.5
13 2 0.3 0.00010002 0.5
14 2 0.325 0.05011 0.5
15 2 0.35 0.00010002 0.5
16 2 0.375 0.05011 0.5
17 2 0.4 0.00010002 0.5
18 2 0.425 0.05011 0.5
19 2 0.45 0.00010002 0.5
20 2 0.475 0.05011 0.5
21 2 0 0.10012 0.5
23 2 0.05 0.10012 0.5
25 2 0.1 0.10012 0.5
27 2 0.15 0.10012 0.5
29 2 0.2 0.10012 0.5
31 2 0.25 0.10012 0.5
33 2 0.3 0.10012 0.5
35 2 0.35 0.10012 0.5
37 2 0.4 0.10012 0.5
39 2 0.45 0.10012 0.5
22 1 0.0253472 0.149097 0.5
43 1 0.048939 0.198377 0.5
24 1 0.0736438 0.149175 0.5
45 1 0.102337 0.197491 0.5
26 1 0.12549 0.149276 0.5
28 1 0.175349 0.146516 0.5
47 1 0.149939 0.197272 0.5
30 1 0.224882 0.148798 0.5
49 1 0.202027 0.198428 0.5
51 1 0.249704 0.198481 0.5
32 1 0.27433 0.147811 0.5
53 1 0.29951 0.196905 0.5
34 1 0.324801 0.148656 0.5
55 1 0.349118 0.196283 0.5
36 1 0.37382 0.148417 0.5
38 1 0.425471 0.1477 0.5
57 1 0.400183 0.194787 0.5
40 1 0.475829 0.147949 0.5
59 1 0.451876 0.196761 0.5
117 1 0.402243 0.491101 0.5
42 1 0.0258799 0.245878 0.5
44 1 0.0745564 0.245676 0.5
46 1 0.123873 0.246117 0.5
48 1 0.175496 0.246277 0.5
50 1 0.225613 0.250754 0.5
52 1 0.275501 0.248308 0.5
54 1 0.325664 0.247063 0.5
56 1 0.380349 0.244127 0.5
58 1 0.426517 0.248402 0.5
60 1 0.475859 0.244971 0.5
63 1 0.0537884 0.294873 0.5
62 1 0.0248044 0.344271 0.5
100 1 0.476617 0.439586 0.5
65 1 0.100589 0.293884 0.5
64 1 0.0749913 0.347737 0.5
66 1 0.124009 0.344537 0.5
67 1 0.14824 0.297857 0.5
68 1 0.17752 0.346938 0.5
69 1 0.197761 0.296675 0.5
70 1 0.223628 0.347065 0.5
71 1 0.249922 0.298053 0.5
73 1 0.302585 0.298034 0.5
72 1 0.276887 0.346518 0.5
75 1 0.351311 0.297226 0.5
74 1 0.32597 0.346506 0.5
77 1 0.402886 0.297131 0.5
76 1 0.375535 0.347601 0.5
78 1 0.428052 0.345599 0.5
79 1 0.45265 0.294794 0.5
80 1 0.480277 0.341048 0.5
96 1 0.377098 0.444644 0.5
83 1 0.0478147 0.3952 0.5
85 1 0.0990499 0.397617 0.5
87 1 0.147207 0.395428 0.5
89 1 0.199745 0.398093 0.5
91 1 0.248589 0.39629 0.5
93 1 0.299137 0.393121 0.5
95 1 0.350698 0.396888 0.5
97 1 0.399427 0.395956 0.5
99 1 0.454921 0.391367 0.5
101 1 0.00060109 0.496575 0.5
82 1 0.0251195 0.447072 0.5
115 1 0.34909 0.49238 0.5
98 1 0.428478 0.442792 0.5
84 1 0.0744286 0.448944 0.5
86 1 0.122771 0.448476 0.5
119 1 0.452643 0.49093 0.5
88 1 0.173786 0.44552 0.5
103 1 0.0480765 0.499257 0.5
111 1 0.251615 0.494074 0.5
90 1 0.225233 0.446742 0.5
109 1 0.201022 0.495086 0.5
113 1 0.300041 0.492254 0.5
92 1 0.275524 0.444523 0.5
94 1 0.32374 0.443224 0.5
107 1 0.149714 0.497575 0.5
105 1 0.0994022 0.497695 0.5
61 1 0.00176184 0.293622 0.5
102 1 0.0253399 0.548277 0.5
104 1 0.0760269 0.545154 0.5
106 1 0.124167 0.545856 0.5
108 1 0.176561 0.54439 0.5
110 1 0.224063 0.545695 0.5
112 1 0.273178 0.54197 0.5
114 1 0.3256 0.540123 0.5
116 1 0.373112 0.540004 0.5
118 1 0.428248 0.537706 0.5
120 1 0.476262 0.54068 0.5
123 1 0.0521637 0.598992 0.5
209 1 0.406126 0.97779 0.5
125 1 0.0995654 0.594912 0.5
124 1 0.0749239 0.648008 0.5
127 1 0.149565 0.595521 0.5
129 1 0.199582 0.593332 0.5
131 1 0.24961 0.59283 0.5
133 1 0.298562 0.589198 0.5
135 1 0.346313 0.588691 0.5
134 1 0.323341 0.637637 0.5
136 1 0.373272 0.637281 0.5
137 1 0.400801 0.585091 0.5
138 1 0.428969 0.638567 0.5
139 1 0.449679 0.589985 0.5
140 1 0.477222 0.638983 0.5
210 1 0.452531 0.9726 0.5
122 1 0.027136 0.649347 0.5
143 1 0.0490269 0.701623 0.5
198 1 0.426959 0.926829 0.5
145 1 0.0996866 0.696384 0.5
126 1 0.12391 0.645356 0.5
128 1 0.174039 0.644952 0.5
147 1 0.149829 0.691943 0.5
130 1 0.225137 0.642195 0.5
149 1 0.200695 0.692401 0.5
151 1 0.248881 0.690812 0.5
132 1 0.273771 0.640671 0.5
153 1 0.297757 0.688053 0.5
155 1 0.348427 0.68668 0.5
157 1 0.399178 0.686277 0.5
159 1 0.454472 0.686555 0.5
196 1 0.378681 0.928086 0.5
142 1 0.0213363 0.746017 0.5
144 1 0.0755244 0.746948 0.5
146 1 0.126946 0.743046 0.5
148 1 0.17414 0.742632 0.5
150 1 0.223339 0.743499 0.5
152 1 0.274062 0.739347 0.5
154 1 0.325385 0.736993 0.5
156 1 0.37518 0.733972 0.5
158 1 0.428552 0.735399 0.5
177 1 0.399815 0.783648 0.5
160 1 0.478663 0.736827 0.5
179 1 0.451388 0.784291 0.5
201 1 2.82766e-05 0.993368 0.5
121 1 0.0041834 0.598818 0.5
163 1 0.0491447 0.793273 0.5
162 1 0.0249468 0.844779 0.5
165 1 0.0987724 0.795383 0.5
164 1 0.0743248 0.844547 0.5
167 1 0.147811 0.79509 0.5
166 1 0.123495 0.846287 0.5
168 1 0.176657 0.840734 0.5
169 1 0.199161 0.791859 0.5
171 1 0.25142 0.791309 0.5
170 1 0.225661 0.839935 0.5
173 1 0.301029 0.78411 0.5
172 1 0.277842 0.836946 0.5
175 1 0.350941 0.784681 0.5
174 1 0.326654 0.834069 0.5
176 1 0.37605 0.833037 0.5
178 1 0.427635 0.829938 0.5
180 1 0.477735 0.831025 0.5
183 1 0.0521142 0.897244 0.5
181 1 0.000247193 0.892925 0.5
185 1 0.103082 0.897824 0.5
187 1 0.152957 0.890991 0.5
189 1 0.202903 0.889041 0.5
191 1 0.255141 0.884917 0.5
193 1 0.303099 0.888611 0.5
195 1 0.353629 0.879881 0.5
197 1 0.403091 0.879169 0.5
200 1 0.478403 0.922204 0.5
199 1 0.451762 0.879105 0.5
182 1 0.0247485 0.944667 0.5
202 1 0.0531799 0.991237 0.5
184 1 0.0790908 0.94666 0.5
203 1 0.104556 0.995304 0.5
186 1 0.129536 0.942607 0.5
204 1 0.156673 0.990608 0.5
188 1 0.180384 0.94134 0.5
205 1 0.207521 0.993174 0.5
190 1 0.231331 0.937419 0.5
206 1 0.257769 0.990564 0.5
207 1 0.304976 0.986618 0.5
192 1 0.279805 0.936755 0.5
208 1 0.356011 0.97921 0.5
194 1 0.327153 0.934227 0.5
411 1 0.499721 0.971565 0.5
161 1 0.000447878 0.79612 0.5
211 2 0.5 0.00010002 0.5
212 2 0.525 0.05011 0.5
213 2 0.55 0.00010002 0.5
214 2 0.575 0.05011 0.5
215 2 0.6 0.00010002 0.5
216 2 0.625 0.05011 0.5
217 2 0.65 0.00010002 0.5
218 2 0.675 0.05011 0.5
219 2 0.7 0.00010002 0.5
220 2 0.725 0.05011 0.5
221 2 0.75 0.00010002 0.5
222 2 0.775 0.05011 0.5
223 2 0.8 0.00010002 0.5
224 2 0.825 0.05011 0.5
225 2 0.85 0.00010002 0.5
226 2 0.875 0.05011 0.5
227 2 0.9 0.00010002 0.5
228 2 0.925 0.05011 0.5
229 2 0.95 0.00010002 0.5
230 2 0.975 0.05011 0.5
231 2 0.5 0.10012 0.5
233 2 0.55 0.10012 0.5
235 2 0.6 0.10012 0.5
237 2 0.65 0.10012 0.5
239 2 0.7 0.10012 0.5
241 2 0.75 0.10012 0.5
243 2 0.8 0.10012 0.5
245 2 0.85 0.10012 0.5
247 2 0.9 0.10012 0.5
249 2 0.95 0.10012 0.5
232 1 0.524902 0.147629 0.5
253 1 0.551843 0.195158 0.5
234 1 0.576223 0.148054 0.5
255 1 0.601695 0.196644 0.5
236 1 0.626319 0.150836 0.5
238 1 0.676891 0.148273 0.5
257 1 0.652448 0.198042 0.5
240 1 0.72431 0.149616 0.5
259 1 0.69879 0.200127 0.5
242 1 0.774886 0.14847 0.5
261 1 0.750873 0.199186 0.5
263 1 0.800573 0.199472 0.5
244 1 0.824944 0.147045 0.5
265 1 0.849219 0.194595 0.5
246 1 0.87456 0.146591 0.5
248 1 0.924724 0.148879 0.5
267 1 0.89852 0.195447 0.5
250 1 0.97359 0.148583 0.5
269 1 0.94932 0.200095 0.5
325 1 0.856791 0.49647 0.5
252 1 0.526786 0.242782 0.5
254 1 0.578622 0.244364 0.5
256 1 0.626875 0.24505 0.5
258 1 0.677028 0.247589 0.5
260 1 0.725963 0.246873 0.5
262 1 0.774147 0.247635 0.5
266 1 0.874525 0.245083 0.5
264 1 0.825366 0.245148 0.5
268 1 0.92317 0.246283 0.5
270 1 0.974341 0.246243 0.5
273 1 0.55299 0.295892 0.5
272 1 0.528589 0.343982 0.5
275 1 0.601062 0.297019 0.5
274 1 0.576462 0.34751 0.5
276 1 0.626113 0.345945 0.5
277 1 0.651654 0.298774 0.5
278 1 0.676803 0.347712 0.5
279 1 0.700365 0.298582 0.5
281 1 0.749728 0.296327 0.5
280 1 0.726012 0.345297 0.5
283 1 0.799187 0.295077 0.5
282 1 0.776116 0.343865 0.5
285 1 0.850599 0.295456 0.5
284 1 0.82331 0.343743 0.5
286 1 0.873939 0.345576 0.5
287 1 0.8982 0.296575 0.5
288 1 0.923303 0.344297 0.5
289 1 0.949924 0.296638 0.5
290 1 0.974446 0.345921 0.5
293 1 0.550481 0.395208 0.5
295 1 0.603826 0.397441 0.5
297 1 0.650683 0.395532 0.5
299 1 0.701889 0.396221 0.5
301 1 0.75007 0.393954 0.5
303 1 0.801868 0.392744 0.5
305 1 0.851745 0.392331 0.5
307 1 0.901501 0.39311 0.5
309 1 0.951692 0.394803 0.5
310 1 0.976847 0.447129 0.5
292 1 0.526159 0.440812 0.5
313 1 0.551307 0.49266 0.5
308 1 0.926912 0.443943 0.5
294 1 0.577088 0.443339 0.5
315 1 0.602715 0.486873 0.5
296 1 0.629221 0.443864 0.5
298 1 0.678267 0.446527 0.5
317 1 0.65263 0.494975 0.5
300 1 0.728751 0.44361 0.5
319 1 0.704427 0.493923 0.5
321 1 0.755682 0.492106 0.5
302 1 0.780216 0.443882 0.5
323 1 0.803943 0.495199 0.5
271 1 0.504532 0.289742 0.5
304 1 0.828511 0.443885 0.5
306 1 0.878742 0.443772 0.5
311 1 0.501645 0.488803 0.5
327 1 0.902648 0.493946 0.5
291 1 0.501716 0.394254 0.5
251 1 0.501875 0.196173 0.5
41 1 0.997846 0.196604 0.5
81 1 0.999438 0.394854 0.5
329 1 0.949686 0.492483 0.5
312 1 0.525782 0.541435 0.5
314 1 0.581004 0.539076 0.5
316 1 0.63016 0.541412 0.5
318 1 0.679819 0.542222 0.5
320 1 0.730358 0.543069 0.5
322 1 0.779968 0.544306 0.5
324 1 0.830519 0.545701 0.5
326 1 0.880623 0.549566 0.5
328 1 0.928218 0.545565 0.5
330 1 0.974537 0.547755 0.5
333 1 0.557078 0.587765 0.5
332 1 0.529474 0.635125 0.5
335 1 0.605123 0.590084 0.5
334 1 0.579657 0.636825 0.5
336 1 0.629642 0.640817 0.5
337 1 0.653634 0.590724 0.5
338 1 0.677979 0.642739 0.5
339 1 0.701989 0.593844 0.5
340 1 0.731801 0.642521 0.5
341 1 0.753221 0.592327 0.5
343 1 0.80523 0.592273 0.5
342 1 0.778734 0.639817 0.5
345 1 0.853532 0.598086 0.5
344 1 0.826575 0.643101 0.5
347 1 0.901884 0.599301 0.5
346 1 0.877874 0.645457 0.5
349 1 0.951062 0.597546 0.5
353 1 0.555524 0.683876 0.5
355 1 0.605337 0.686473 0.5
357 1 0.658128 0.690285 0.5
359 1 0.707537 0.690861 0.5
361 1 0.7565 0.691726 0.5
363 1 0.803676 0.692932 0.5
365 1 0.8519 0.696067 0.5
348 1 0.926047 0.645348 0.5
367 1 0.898934 0.69656 0.5
350 1 0.976935 0.64534 0.5
369 1 0.949609 0.694866 0.5
352 1 0.528714 0.734206 0.5
373 1 0.553927 0.783912 0.5
354 1 0.57894 0.736374 0.5
375 1 0.60267 0.785268 0.5
356 1 0.628351 0.734752 0.5
358 1 0.681231 0.73705 0.5
377 1 0.652511 0.789848 0.5
360 1 0.730114 0.741124 0.5
362 1 0.779584 0.744168 0.5
364 1 0.827375 0.745789 0.5
366 1 0.8757 0.744982 0.5
368 1 0.926315 0.747692 0.5
370 1 0.974757 0.747502 0.5
372 1 0.527162 0.830707 0.5
374 1 0.577659 0.831569 0.5
376 1 0.628472 0.837003 0.5
378 1 0.679533 0.840036 0.5
379 1 0.702982 0.791738 0.5
380 1 0.729622 0.844396 0.5
381 1 0.753349 0.792526 0.5
383 1 0.804016 0.794378 0.5
382 1 0.778895 0.842271 0.5
385 1 0.853593 0.793484 0.5
384 1 0.829412 0.844059 0.5
386 1 0.876363 0.844074 0.5
387 1 0.903319 0.797596 0.5
388 1 0.928158 0.84424 0.5
389 1 0.952042 0.795749 0.5
390 1 0.975702 0.844206 0.5
393 1 0.553348 0.880331 0.5
392 1 0.527212 0.925685 0.5
391 1 0.503903 0.876381 0.5
395 1 0.602058 0.885241 0.5
394 1 0.577932 0.931893 0.5
397 1 0.648954 0.887523 0.5
399 1 0.700874 0.892903 0.5
401 1 0.755598 0.892787 0.5
403 1 0.804816 0.893688 0.5
405 1 0.852901 0.896517 0.5
407 1 0.90298 0.895151 0.5
409 1 0.951665 0.894179 0.5
141 1 0.998931 0.696057 0.5
412 1 0.550141 0.974775 0.5
413 1 0.598168 0.987521 0.5
396 1 0.624469 0.937972 0.5
398 1 0.672917 0.937918 0.5
414 1 0.648273 0.988977 0.5
415 1 0.696762 0.985647 0.5
400 1 0.726311 0.940976 0.5
416 1 0.753876 0.991868 0.5
417 1 0.802764 0.998976 0.5
402 1 0.779493 0.944325 0.5
418 1 0.852542 0.999965 0.5
404 1 0.829502 0.948395 0.5
406 1 0.881043 0.945255 0.5
419 1 0.899771 0.99691 0.5
408 1 0.930272 0.944924 0.5
371 1 0.503688 0.783946 0.5
410 1 0.977867 0.943748 0.5
420 1 0.949704 0.991781 0.5
331 1 0.500359 0.591087 0.5
351 1 0.504853 0.684115 0.5
