ITEM: TIMESTEP
36000
ITEM: NUMBER OF ATOMS
420
ITEM: BOX BOUNDS pp ss pp
0.0000000000000000e+00 2.2653923264628304e+01
-1.9618873042551413e-03 2.0532617116525017e+01
-2.8317404080785380e-01 2.8317404080785380e-01
ITEM: ATOMS id type xs ys zs
1 2 0 9.55407e-05 0.5
2 2 0.025 0.0478659 0.5
3 2 0.05 9.55407e-05 0.5
4 2 0.075 0.0478659 0.5
5 2 0.1 9.55407e-05 0.5
6 2 0.125 0.0478659 0.5
7 2 0.15 9.55407e-05 0.5
8 2 0.175 0.0478659 0.5
9 2 0.2 9.55407e-05 0.5
10 2 0.225 0.0478659 0.5
11 2 0.25 9.55407e-05 0.5
12 2 0.275 0.0478659 0.5
13 2 0.3 9.55407e-05 0.5
14 2 0.325 0.0478659 0.5
15 2 0.35 9.55407e-05 0.5
16 2 0.375 0.0478659 0.5
17 2 0.4 9.55407e-05 0.5
18 2 0.425 0.0478659 0.5
19 2 0.45 9.55407e-05 0.5
20 2 0.475 0.0478659 0.5
21 2 0 0.0956362 0.5
23 2 0.05 0.0956362 0.5
22 1 0.0225861 0.142397 0.5
25 2 0.1 0.0956362 0.5
24 1 0.075235 0.142244 0.5
26 1 0.123411 0.141514 0.5
27 2 0.15 0.0956362 0.5
28 1 0.175086 0.144393 0.5
29 2 0.2 0.0956362 0.5
31 2 0.25 0.0956362 0.5
33 2 0.3 0.0956362 0.5
32 1 0.276284 0.141359 0.5
35 2 0.35 0.0956362 0.5
34 1 0.324717 0.143277 0.5
36 1 0.374487 0.145089 0.5
37 2 0.4 0.0956362 0.5
39 2 0.45 0.0956362 0.5
43 1 0.0482292 0.188139 0.5
117 1 0.401348 0.467231 0.5
45 1 0.100225 0.188241 0.5
47 1 0.148066 0.192114 0.5
30 1 0.226917 0.145007 0.5
49 1 0.199507 0.191036 0.5
51 1 0.250932 0.192899 0.5
53 1 0.302023 0.189766 0.5
55 1 0.350714 0.190027 0.5
38 1 0.424275 0.140108 0.5
57 1 0.399592 0.19069 0.5
40 1 0.475026 0.140956 0.5
59 1 0.450952 0.187554 0.5
42 1 0.0203446 0.235958 0.5
63 1 0.0476866 0.281471 0.5
44 1 0.0707525 0.236755 0.5
65 1 0.097064 0.282154 0.5
46 1 0.123128 0.237732 0.5
48 1 0.171281 0.240247 0.5
67 1 0.147839 0.284786 0.5
50 1 0.224047 0.23809 0.5
69 1 0.201538 0.284167 0.5
71 1 0.248251 0.28233 0.5
52 1 0.276507 0.236016 0.5
73 1 0.301763 0.280067 0.5
54 1 0.328103 0.236222 0.5
75 1 0.352743 0.280659 0.5
56 1 0.37795 0.236832 0.5
58 1 0.426448 0.236941 0.5
77 1 0.402034 0.284691 0.5
60 1 0.476557 0.23691 0.5
79 1 0.453104 0.283063 0.5
62 1 0.0246712 0.329023 0.5
64 1 0.0734396 0.332715 0.5
66 1 0.121786 0.329681 0.5
68 1 0.176886 0.330146 0.5
70 1 0.226956 0.331075 0.5
72 1 0.275797 0.329247 0.5
74 1 0.32657 0.328789 0.5
76 1 0.376819 0.330661 0.5
78 1 0.426951 0.329397 0.5
80 1 0.479742 0.330388 0.5
83 1 0.0481636 0.377874 0.5
82 1 0.0264556 0.428639 0.5
119 1 0.455321 0.468577 0.5
85 1 0.099807 0.377982 0.5
84 1 0.0744577 0.425673 0.5
86 1 0.124321 0.427212 0.5
87 1 0.148317 0.37755 0.5
88 1 0.174846 0.426155 0.5
89 1 0.198359 0.376411 0.5
90 1 0.222049 0.42293 0.5
91 1 0.2496 0.375406 0.5
93 1 0.302274 0.375893 0.5
92 1 0.27751 0.419764 0.5
95 1 0.351463 0.376788 0.5
94 1 0.329628 0.423254 0.5
96 1 0.376657 0.423583 0.5
97 1 0.402036 0.375506 0.5
98 1 0.428858 0.421794 0.5
99 1 0.451451 0.37445 0.5
100 1 0.478528 0.422328 0.5
103 1 0.0513945 0.473152 0.5
107 1 0.100484 0.472062 0.5
109 1 0.153385 0.47194 0.5
111 1 0.202003 0.470559 0.5
112 1 0.250072 0.471732 0.5
113 1 0.297882 0.466469 0.5
115 1 0.352224 0.471001 0.5
81 1 0.000474033 0.379344 0.5
251 1 0.498094 0.187713 0.5
104 1 0.0525673 0.56397 0.5
102 1 0.026292 0.517634 0.5
106 1 0.106068 0.567613 0.5
105 1 0.0782726 0.52055 0.5
108 1 0.127307 0.519019 0.5
110 1 0.181011 0.517184 0.5
129 1 0.156906 0.564084 0.5
131 1 0.206515 0.566856 0.5
133 1 0.225746 0.518539 0.5
134 1 0.253955 0.568459 0.5
136 1 0.306122 0.56519 0.5
135 1 0.273362 0.518594 0.5
137 1 0.354001 0.564741 0.5
116 1 0.379693 0.514546 0.5
114 1 0.325422 0.515443 0.5
139 1 0.402792 0.564193 0.5
118 1 0.428482 0.513948 0.5
120 1 0.479473 0.516408 0.5
331 1 0.454484 0.56368 0.5
123 1 0.0263296 0.61086 0.5
125 1 0.0775879 0.610504 0.5
127 1 0.131612 0.613027 0.5
130 1 0.183933 0.613342 0.5
132 1 0.232443 0.614669 0.5
155 1 0.279882 0.611138 0.5
157 1 0.326957 0.614174 0.5
138 1 0.379424 0.613502 0.5
140 1 0.427743 0.612451 0.5
332 1 0.476432 0.614611 0.5
124 1 0.0525786 0.65781 0.5
143 1 0.0276486 0.702955 0.5
145 1 0.0777126 0.705602 0.5
126 1 0.10394 0.657653 0.5
147 1 0.12981 0.708754 0.5
128 1 0.15347 0.660312 0.5
149 1 0.177622 0.707333 0.5
151 1 0.204189 0.66156 0.5
152 1 0.228446 0.707189 0.5
153 1 0.253948 0.66072 0.5
156 1 0.304387 0.661536 0.5
154 1 0.277716 0.708984 0.5
158 1 0.357582 0.660667 0.5
177 1 0.33261 0.707389 0.5
179 1 0.379749 0.707994 0.5
159 1 0.405974 0.660694 0.5
160 1 0.429139 0.709453 0.5
351 1 0.453146 0.661947 0.5
352 1 0.479339 0.709379 0.5
194 1 0.300881 0.943479 0.5
144 1 0.0504426 0.750924 0.5
209 1 0.35292 0.943202 0.5
146 1 0.10288 0.751305 0.5
148 1 0.152208 0.755071 0.5
150 1 0.202364 0.753144 0.5
173 1 0.251943 0.753778 0.5
175 1 0.300009 0.754812 0.5
178 1 0.354025 0.754446 0.5
180 1 0.400869 0.754614 0.5
371 1 0.451766 0.756687 0.5
208 1 0.324424 0.992854 0.5
163 1 0.0265237 0.798631 0.5
164 1 0.0520375 0.84408 0.5
165 1 0.0766699 0.798637 0.5
166 1 0.101439 0.846565 0.5
167 1 0.125116 0.801737 0.5
168 1 0.153342 0.847419 0.5
169 1 0.177333 0.800761 0.5
171 1 0.227373 0.80219 0.5
172 1 0.251149 0.849508 0.5
170 1 0.20019 0.848182 0.5
174 1 0.275687 0.801248 0.5
195 1 0.302959 0.848934 0.5
176 1 0.326276 0.799849 0.5
199 1 0.377694 0.802718 0.5
197 1 0.353152 0.850601 0.5
391 1 0.424768 0.803704 0.5
210 1 0.401907 0.8523 0.5
411 1 0.47732 0.800732 0.5
200 1 0.451599 0.845171 0.5
192 1 0.252336 0.943204 0.5
183 1 0.028887 0.889942 0.5
185 1 0.0768836 0.895538 0.5
187 1 0.12776 0.896587 0.5
189 1 0.179353 0.898028 0.5
191 1 0.22648 0.897067 0.5
193 1 0.276602 0.895174 0.5
196 1 0.32776 0.895874 0.5
198 1 0.377332 0.897845 0.5
184 1 0.0562794 0.941821 0.5
202 1 0.0277214 0.984968 0.5
203 1 0.0780653 0.98814 0.5
186 1 0.105765 0.943035 0.5
204 1 0.127661 0.991299 0.5
188 1 0.155188 0.945056 0.5
205 1 0.178827 0.989343 0.5
190 1 0.204362 0.94498 0.5
206 1 0.225638 0.999816 0.5
207 1 0.275252 0.990451 0.5
182 1 0.00383569 0.934388 0.5
162 1 0.00181272 0.843984 0.5
121 1 0.000372325 0.563347 0.5
142 1 0.00142568 0.751986 0.5
122 1 0.00363799 0.658005 0.5
392 1 0.498724 0.852431 0.5
211 2 0.5 9.55407e-05 0.5
212 2 0.525 0.0478659 0.5
213 2 0.55 9.55407e-05 0.5
214 2 0.575 0.0478659 0.5
215 2 0.6 9.55407e-05 0.5
216 2 0.625 0.0478659 0.5
217 2 0.65 9.55407e-05 0.5
218 2 0.675 0.0478659 0.5
219 2 0.7 9.55407e-05 0.5
220 2 0.725 0.0478659 0.5
221 2 0.75 9.55407e-05 0.5
222 2 0.775 0.0478659 0.5
223 2 0.8 9.55407e-05 0.5
224 2 0.825 0.0478659 0.5
225 2 0.85 9.55407e-05 0.5
226 2 0.875 0.0478659 0.5
227 2 0.9 9.55407e-05 0.5
228 2 0.925 0.0478659 0.5
229 2 0.95 9.55407e-05 0.5
230 2 0.975 0.0478659 0.5
231 2 0.5 0.0956362 0.5
233 2 0.55 0.0956362 0.5
232 1 0.526833 0.146102 0.5
235 2 0.6 0.0956362 0.5
236 1 0.625787 0.146259 0.5
237 2 0.65 0.0956362 0.5
239 2 0.7 0.0956362 0.5
240 1 0.725848 0.142076 0.5
241 2 0.75 0.0956362 0.5
243 2 0.8 0.0956362 0.5
245 2 0.85 0.0956362 0.5
246 1 0.873417 0.141447 0.5
247 2 0.9 0.0956362 0.5
249 2 0.95 0.0956362 0.5
253 1 0.551821 0.191834 0.5
323 1 0.799233 0.471177 0.5
234 1 0.575147 0.144407 0.5
255 1 0.601154 0.192956 0.5
238 1 0.67735 0.142222 0.5
257 1 0.65175 0.190916 0.5
259 1 0.700206 0.191028 0.5
261 1 0.750245 0.189987 0.5
242 1 0.773827 0.141913 0.5
263 1 0.797885 0.189072 0.5
244 1 0.821947 0.140167 0.5
265 1 0.84927 0.189441 0.5
248 1 0.9233 0.142004 0.5
267 1 0.897379 0.189472 0.5
250 1 0.97249 0.141828 0.5
269 1 0.948505 0.188997 0.5
252 1 0.524869 0.238603 0.5
273 1 0.55435 0.286786 0.5
254 1 0.574697 0.239297 0.5
275 1 0.602515 0.283707 0.5
256 1 0.626622 0.236849 0.5
258 1 0.67641 0.236605 0.5
260 1 0.724877 0.238696 0.5
262 1 0.773494 0.238296 0.5
283 1 0.798271 0.283285 0.5
264 1 0.823879 0.235357 0.5
285 1 0.848171 0.28148 0.5
266 1 0.87616 0.236778 0.5
268 1 0.927145 0.234745 0.5
270 1 0.973692 0.237003 0.5
329 1 0.951084 0.470862 0.5
272 1 0.530769 0.331361 0.5
327 1 0.901157 0.468991 0.5
274 1 0.580335 0.331559 0.5
277 1 0.65031 0.284678 0.5
276 1 0.627165 0.331189 0.5
278 1 0.674712 0.331107 0.5
279 1 0.696855 0.285221 0.5
280 1 0.725391 0.331583 0.5
281 1 0.748375 0.283139 0.5
282 1 0.773977 0.332864 0.5
284 1 0.821778 0.332184 0.5
287 1 0.898092 0.282732 0.5
286 1 0.871369 0.328657 0.5
288 1 0.9233 0.328627 0.5
289 1 0.949613 0.283481 0.5
290 1 0.971693 0.330835 0.5
293 1 0.553449 0.377016 0.5
292 1 0.531478 0.422352 0.5
321 1 0.749768 0.471388 0.5
294 1 0.580994 0.425491 0.5
295 1 0.603827 0.378111 0.5
296 1 0.628368 0.426045 0.5
297 1 0.651631 0.379855 0.5
298 1 0.673965 0.427781 0.5
299 1 0.698908 0.377907 0.5
300 1 0.724376 0.42554 0.5
301 1 0.748643 0.381127 0.5
303 1 0.79806 0.37947 0.5
302 1 0.772006 0.42542 0.5
305 1 0.848022 0.378079 0.5
304 1 0.823078 0.423438 0.5
306 1 0.873916 0.425572 0.5
307 1 0.897353 0.376638 0.5
308 1 0.927066 0.42497 0.5
309 1 0.951032 0.378372 0.5
310 1 0.976233 0.42201 0.5
313 1 0.554013 0.468534 0.5
325 1 0.847155 0.470323 0.5
315 1 0.602299 0.472545 0.5
317 1 0.651231 0.474462 0.5
319 1 0.701611 0.474181 0.5
271 1 0.505087 0.285044 0.5
291 1 0.502775 0.37685 0.5
311 1 0.503374 0.468776 0.5
61 1 0.99692 0.282904 0.5
101 1 0.998968 0.4709 0.5
41 1 0.995448 0.189583 0.5
335 1 0.551969 0.567713 0.5
312 1 0.527982 0.514288 0.5
420 1 0.930896 0.984132 0.5
314 1 0.574706 0.518126 0.5
316 1 0.625463 0.520341 0.5
336 1 0.600092 0.567746 0.5
337 1 0.650614 0.568198 0.5
318 1 0.678011 0.521789 0.5
339 1 0.70157 0.568312 0.5
320 1 0.72668 0.520456 0.5
341 1 0.750799 0.568083 0.5
343 1 0.798587 0.566159 0.5
322 1 0.773791 0.519252 0.5
324 1 0.823109 0.518734 0.5
345 1 0.849674 0.565547 0.5
326 1 0.872727 0.517532 0.5
347 1 0.902194 0.566117 0.5
328 1 0.923514 0.51831 0.5
349 1 0.948299 0.564352 0.5
330 1 0.975536 0.51891 0.5
410 1 0.954405 0.934942 0.5
334 1 0.525757 0.616827 0.5
355 1 0.577646 0.616481 0.5
357 1 0.625686 0.617653 0.5
338 1 0.675293 0.613061 0.5
340 1 0.724783 0.614248 0.5
342 1 0.775907 0.616979 0.5
344 1 0.825286 0.61228 0.5
346 1 0.876794 0.611334 0.5
348 1 0.927814 0.610087 0.5
350 1 0.975814 0.60781 0.5
373 1 0.527446 0.706144 0.5
354 1 0.552889 0.662307 0.5
356 1 0.600565 0.66285 0.5
375 1 0.575445 0.708164 0.5
377 1 0.625716 0.706701 0.5
358 1 0.651605 0.661826 0.5
379 1 0.676381 0.707973 0.5
359 1 0.700696 0.660702 0.5
361 1 0.751264 0.659692 0.5
360 1 0.725208 0.707019 0.5
363 1 0.802048 0.660473 0.5
362 1 0.774676 0.705677 0.5
365 1 0.852983 0.655895 0.5
364 1 0.824849 0.70712 0.5
366 1 0.875812 0.702369 0.5
367 1 0.904446 0.657018 0.5
368 1 0.926832 0.705132 0.5
201 1 0.978532 0.981381 0.5
369 1 0.952869 0.657618 0.5
141 1 0.977306 0.705825 0.5
374 1 0.550419 0.755533 0.5
376 1 0.599379 0.756453 0.5
378 1 0.649434 0.754027 0.5
380 1 0.697354 0.752765 0.5
381 1 0.750143 0.755015 0.5
383 1 0.800987 0.753051 0.5
385 1 0.852289 0.748812 0.5
387 1 0.902149 0.750335 0.5
370 1 0.951899 0.750038 0.5
393 1 0.526438 0.807661 0.5
412 1 0.554788 0.855537 0.5
394 1 0.575377 0.804518 0.5
395 1 0.625344 0.80152 0.5
413 1 0.603928 0.849004 0.5
397 1 0.675522 0.802281 0.5
396 1 0.651539 0.850762 0.5
401 1 0.725496 0.799164 0.5
399 1 0.701474 0.846968 0.5
400 1 0.751847 0.845455 0.5
382 1 0.776071 0.800143 0.5
403 1 0.802553 0.845545 0.5
384 1 0.828373 0.798609 0.5
386 1 0.875697 0.796094 0.5
405 1 0.85211 0.845515 0.5
389 1 0.923134 0.798152 0.5
388 1 0.902822 0.845891 0.5
161 1 0.975045 0.796261 0.5
390 1 0.954058 0.842126 0.5
333 1 0.503277 0.565882 0.5
414 1 0.675226 0.897028 0.5
398 1 0.726604 0.894845 0.5
402 1 0.777631 0.894125 0.5
404 1 0.82812 0.88976 0.5
407 1 0.876493 0.891005 0.5
409 1 0.926545 0.889188 0.5
181 1 0.977807 0.890144 0.5
415 1 0.751858 0.943775 0.5
417 1 0.802407 0.941177 0.5
416 1 0.778197 0.995503 0.5
406 1 0.854645 0.941554 0.5
418 1 0.826408 0.987779 0.5
419 1 0.88 0.987859 0.5
408 1 0.903059 0.937154 0.5
353 1 0.500738 0.661615 0.5
372 1 0.503297 0.757354 0.5
