ITEM: TIMESTEP
15250
ITEM: NUMBER OF ATOMS
420
ITEM: BOX BOUNDS pp ss pp
0.0000000000000000e+00 2.2653923264628304e+01
-1.9618873042551413e-03 1.9497404492168407e+01
-2.8317404080785380e-01 2.8317404080785380e-01
ITEM: ATOMS id type xs ys zs
1 2 0 0.000100613 0.5
2 2 0.025 0.0504071 0.5
3 2 0.05 0.000100613 0.5
4 2 0.075 0.0504071 0.5
5 2 0.1 0.000100613 0.5
6 2 0.125 0.0504071 0.5
7 2 0.15 0.000100613 0.5
8 2 0.175 0.0504071 0.5
9 2 0.2 0.000100613 0.5
10 2 0.225 0.0504071 0.5
11 2 0.25 0.000100613 0.5
12 2 0.275 0.0504071 0.5
13 2 0.3 0.000100613 0.5
14 2 0.325 0.0504071 0.5
15 2 0.35 0.000100613 0.5
16 2 0.375 0.0504071 0.5
17 2 0.4 0.000100613 0.5
18 2 0.425 0.0504071 0.5
19 2 0.45 0.000100613 0.5
20 2 0.475 0.0504071 0.5
21 2 0 0.100713 0.5
23 2 0.05 0.100713 0.5
25 2 0.1 0.100713 0.5
27 2 0.15 0.100713 0.5
29 2 0.2 0.100713 0.5
31 2 0.25 0.100713 0.5
33 2 0.3 0.100713 0.5
35 2 0.35 0.100713 0.5
37 2 0.4 0.100713 0.5
39 2 0.45 0.100713 0.5
22 1 0.0289109 0.147609 0.5
43 1 0.0506608 0.200212 0.5
24 1 0.0766804 0.148266 0.5
26 1 0.125044 0.150086 0.5
45 1 0.0998593 0.195447 0.5
28 1 0.175016 0.149538 0.5
47 1 0.150661 0.198998 0.5
30 1 0.224454 0.148534 0.5
49 1 0.199906 0.196827 0.5
51 1 0.249918 0.198764 0.5
32 1 0.274402 0.147884 0.5
53 1 0.299504 0.19974 0.5
34 1 0.324081 0.149202 0.5
36 1 0.375703 0.148507 0.5
55 1 0.348528 0.197897 0.5
38 1 0.425566 0.147568 0.5
57 1 0.396015 0.200278 0.5
40 1 0.47622 0.151945 0.5
59 1 0.448 0.197848 0.5
251 1 0.496954 0.202712 0.5
42 1 0.025004 0.243339 0.5
44 1 0.0763037 0.246353 0.5
46 1 0.1239 0.245693 0.5
48 1 0.173506 0.247407 0.5
50 1 0.224319 0.245653 0.5
52 1 0.270688 0.249047 0.5
54 1 0.32236 0.249548 0.5
56 1 0.370308 0.249624 0.5
58 1 0.419505 0.25023 0.5
60 1 0.468764 0.250693 0.5
63 1 0.0478323 0.292701 0.5
62 1 0.020098 0.341567 0.5
65 1 0.0985533 0.295108 0.5
64 1 0.070459 0.343077 0.5
66 1 0.120061 0.34436 0.5
67 1 0.145807 0.295309 0.5
68 1 0.169349 0.343654 0.5
69 1 0.196086 0.295791 0.5
71 1 0.245022 0.297764 0.5
70 1 0.218902 0.343533 0.5
73 1 0.293474 0.298947 0.5
72 1 0.267919 0.346657 0.5
75 1 0.343314 0.301745 0.5
74 1 0.31779 0.347766 0.5
76 1 0.366156 0.35035 0.5
77 1 0.392146 0.301106 0.5
78 1 0.415587 0.349962 0.5
79 1 0.441923 0.297674 0.5
271 1 0.49207 0.301835 0.5
80 1 0.462777 0.351389 0.5
83 1 0.0455869 0.387893 0.5
85 1 0.0931393 0.391738 0.5
87 1 0.140375 0.39532 0.5
89 1 0.191608 0.39038 0.5
91 1 0.241367 0.393329 0.5
93 1 0.288804 0.396324 0.5
95 1 0.337928 0.397078 0.5
97 1 0.386837 0.401348 0.5
99 1 0.438008 0.401181 0.5
291 1 0.487769 0.39862 0.5
103 1 0.0432106 0.490796 0.5
82 1 0.0207737 0.441648 0.5
105 1 0.0904005 0.489621 0.5
84 1 0.0683696 0.438435 0.5
86 1 0.116695 0.443383 0.5
88 1 0.166166 0.43957 0.5
107 1 0.140236 0.490252 0.5
90 1 0.21358 0.439687 0.5
109 1 0.185836 0.490701 0.5
111 1 0.235884 0.489773 0.5
113 1 0.281842 0.492748 0.5
92 1 0.260853 0.443277 0.5
94 1 0.311465 0.44533 0.5
115 1 0.334058 0.493675 0.5
96 1 0.360132 0.446041 0.5
119 1 0.432163 0.498935 0.5
98 1 0.409196 0.449738 0.5
117 1 0.384281 0.495616 0.5
100 1 0.458504 0.44985 0.5
311 1 0.484864 0.498648 0.5
41 1 0.00118163 0.192691 0.5
102 1 0.0180819 0.541674 0.5
104 1 0.0651931 0.538763 0.5
106 1 0.115841 0.542488 0.5
108 1 0.161519 0.543777 0.5
110 1 0.207884 0.53982 0.5
112 1 0.256267 0.540326 0.5
114 1 0.303908 0.543294 0.5
116 1 0.356241 0.542265 0.5
118 1 0.405397 0.545784 0.5
120 1 0.453979 0.550431 0.5
123 1 0.038252 0.589654 0.5
122 1 0.01084 0.636798 0.5
124 1 0.0613565 0.637778 0.5
125 1 0.0857968 0.589882 0.5
126 1 0.10839 0.641586 0.5
127 1 0.135099 0.593397 0.5
128 1 0.157764 0.640907 0.5
129 1 0.181824 0.590096 0.5
130 1 0.20621 0.63809 0.5
131 1 0.229977 0.58763 0.5
133 1 0.277042 0.592322 0.5
132 1 0.254375 0.641937 0.5
134 1 0.301468 0.643884 0.5
135 1 0.324636 0.593017 0.5
136 1 0.349264 0.642732 0.5
137 1 0.376459 0.592921 0.5
138 1 0.395893 0.645637 0.5
139 1 0.423637 0.597659 0.5
140 1 0.449765 0.64698 0.5
331 1 0.476046 0.598398 0.5
143 1 0.035027 0.68774 0.5
145 1 0.0840153 0.689878 0.5
147 1 0.1306 0.694452 0.5
149 1 0.180103 0.687736 0.5
151 1 0.225595 0.692562 0.5
153 1 0.274938 0.691136 0.5
155 1 0.3232 0.690792 0.5
157 1 0.370625 0.693718 0.5
159 1 0.421317 0.695774 0.5
351 1 0.470574 0.698686 0.5
142 1 0.00861589 0.73762 0.5
144 1 0.0553545 0.738938 0.5
163 1 0.0280521 0.79027 0.5
146 1 0.102824 0.742597 0.5
165 1 0.0769295 0.790227 0.5
148 1 0.154862 0.741485 0.5
167 1 0.125491 0.79477 0.5
169 1 0.174184 0.793732 0.5
150 1 0.201317 0.747044 0.5
171 1 0.221576 0.799168 0.5
152 1 0.248549 0.742619 0.5
154 1 0.296786 0.739448 0.5
173 1 0.269918 0.791782 0.5
156 1 0.345795 0.742698 0.5
175 1 0.31778 0.787477 0.5
158 1 0.39329 0.742941 0.5
177 1 0.368946 0.790127 0.5
179 1 0.418004 0.790265 0.5
160 1 0.44623 0.743077 0.5
371 1 0.46738 0.791974 0.5
352 1 0.495802 0.745764 0.5
162 1 0.00478677 0.840355 0.5
164 1 0.0537956 0.839314 0.5
166 1 0.102025 0.844226 0.5
168 1 0.149717 0.84407 0.5
170 1 0.195782 0.848283 0.5
172 1 0.245181 0.847374 0.5
174 1 0.29257 0.840929 0.5
176 1 0.339858 0.837959 0.5
178 1 0.391522 0.838444 0.5
180 1 0.441893 0.837828 0.5
391 1 0.489257 0.838887 0.5
183 1 0.0268246 0.888351 0.5
182 1 0.00234887 0.937155 0.5
184 1 0.0491402 0.939981 0.5
185 1 0.0752189 0.890111 0.5
186 1 0.0985791 0.941398 0.5
187 1 0.124461 0.892904 0.5
189 1 0.172343 0.896861 0.5
191 1 0.221786 0.898629 0.5
190 1 0.194971 0.947099 0.5
193 1 0.271665 0.899672 0.5
192 1 0.245475 0.948239 0.5
196 1 0.339514 0.934955 0.5
195 1 0.316813 0.887012 0.5
197 1 0.365675 0.888601 0.5
198 1 0.390992 0.935683 0.5
199 1 0.414533 0.886556 0.5
411 1 0.488243 0.931836 0.5
210 1 0.438563 0.935154 0.5
200 1 0.463917 0.886792 0.5
202 1 0.0254614 0.992919 0.5
203 1 0.0742113 0.992929 0.5
204 1 0.122952 0.993815 0.5
188 1 0.14851 0.945325 0.5
205 1 0.172981 0.999029 0.5
206 1 0.221668 0.999876 0.5
207 1 0.26923 0.999444 0.5
194 1 0.29353 0.947579 0.5
208 1 0.318874 0.996092 0.5
209 1 0.36361 0.980737 0.5
332 1 0.499155 0.650899 0.5
211 2 0.5 0.000100613 0.5
212 2 0.525 0.0504071 0.5
213 2 0.55 0.000100613 0.5
214 2 0.575 0.0504071 0.5
215 2 0.6 0.000100613 0.5
216 2 0.625 0.0504071 0.5
217 2 0.65 0.000100613 0.5
218 2 0.675 0.0504071 0.5
219 2 0.7 0.000100613 0.5
220 2 0.725 0.0504071 0.5
221 2 0.75 0.000100613 0.5
222 2 0.775 0.0504071 0.5
223 2 0.8 0.000100613 0.5
224 2 0.825 0.0504071 0.5
225 2 0.85 0.000100613 0.5
226 2 0.875 0.0504071 0.5
227 2 0.9 0.000100613 0.5
228 2 0.925 0.0504071 0.5
229 2 0.95 0.000100613 0.5
230 2 0.975 0.0504071 0.5
231 2 0.5 0.100713 0.5
233 2 0.55 0.100713 0.5
235 2 0.6 0.100713 0.5
237 2 0.65 0.100713 0.5
239 2 0.7 0.100713 0.5
241 2 0.75 0.100713 0.5
243 2 0.8 0.100713 0.5
245 2 0.85 0.100713 0.5
247 2 0.9 0.100713 0.5
249 2 0.95 0.100713 0.5
232 1 0.523785 0.151681 0.5
253 1 0.543947 0.201766 0.5
234 1 0.572418 0.14901 0.5
236 1 0.620842 0.15044 0.5
255 1 0.592893 0.202293 0.5
238 1 0.670347 0.150468 0.5
257 1 0.644447 0.204172 0.5
240 1 0.724305 0.149145 0.5
259 1 0.695982 0.199492 0.5
261 1 0.744934 0.199669 0.5
242 1 0.776774 0.149129 0.5
263 1 0.795418 0.20121 0.5
244 1 0.825194 0.150665 0.5
265 1 0.851304 0.195726 0.5
246 1 0.874621 0.148681 0.5
248 1 0.925794 0.14663 0.5
267 1 0.901331 0.193763 0.5
250 1 0.976961 0.146061 0.5
269 1 0.95214 0.193621 0.5
329 1 0.943413 0.485967 0.5
252 1 0.519638 0.250911 0.5
254 1 0.568227 0.252689 0.5
256 1 0.617661 0.254018 0.5
258 1 0.669182 0.255754 0.5
260 1 0.718848 0.251273 0.5
262 1 0.769248 0.248867 0.5
283 1 0.804553 0.288804 0.5
264 1 0.827648 0.241905 0.5
285 1 0.852653 0.288061 0.5
266 1 0.877513 0.24127 0.5
268 1 0.926059 0.241458 0.5
270 1 0.97609 0.241547 0.5
273 1 0.540408 0.302921 0.5
272 1 0.514395 0.352908 0.5
274 1 0.564884 0.348842 0.5
275 1 0.590998 0.303156 0.5
276 1 0.611171 0.35538 0.5
277 1 0.642116 0.30738 0.5
278 1 0.659019 0.362095 0.5
279 1 0.690873 0.307757 0.5
281 1 0.741497 0.299902 0.5
280 1 0.709032 0.363331 0.5
282 1 0.779874 0.334481 0.5
284 1 0.829068 0.337529 0.5
286 1 0.876695 0.339457 0.5
287 1 0.900266 0.291724 0.5
288 1 0.924639 0.340261 0.5
289 1 0.94981 0.290418 0.5
290 1 0.97256 0.340255 0.5
101 1 0.994919 0.489026 0.5
293 1 0.537526 0.40196 0.5
295 1 0.584262 0.403498 0.5
297 1 0.630574 0.409194 0.5
299 1 0.680785 0.414272 0.5
300 1 0.727267 0.423995 0.5
301 1 0.75615 0.381477 0.5
303 1 0.805371 0.386229 0.5
302 1 0.776379 0.431374 0.5
305 1 0.852504 0.387746 0.5
304 1 0.825706 0.434209 0.5
306 1 0.87417 0.439476 0.5
307 1 0.898681 0.389672 0.5
309 1 0.947057 0.390926 0.5
81 1 0.996879 0.389992 0.5
292 1 0.507756 0.447435 0.5
327 1 0.896113 0.486896 0.5
294 1 0.556673 0.452313 0.5
61 1 0.998794 0.293386 0.5
296 1 0.604693 0.458406 0.5
298 1 0.653843 0.461162 0.5
310 1 0.971222 0.439176 0.5
319 1 0.700656 0.471155 0.5
321 1 0.749398 0.473668 0.5
323 1 0.799563 0.480743 0.5
325 1 0.848175 0.485506 0.5
308 1 0.92104 0.43772 0.5
312 1 0.502177 0.550969 0.5
314 1 0.554855 0.556686 0.5
316 1 0.601882 0.557244 0.5
337 1 0.65027 0.56437 0.5
318 1 0.674755 0.517194 0.5
320 1 0.723161 0.519221 0.5
339 1 0.696956 0.568044 0.5
341 1 0.745059 0.573236 0.5
322 1 0.771363 0.526003 0.5
343 1 0.793364 0.577248 0.5
324 1 0.820539 0.531794 0.5
326 1 0.871075 0.532814 0.5
345 1 0.845121 0.582288 0.5
328 1 0.917739 0.536816 0.5
330 1 0.968535 0.535442 0.5
333 1 0.527235 0.602874 0.5
313 1 0.530497 0.503608 0.5
334 1 0.549544 0.651928 0.5
335 1 0.57573 0.605745 0.5
355 1 0.595795 0.655622 0.5
336 1 0.62439 0.610116 0.5
338 1 0.672844 0.615619 0.5
340 1 0.721914 0.622895 0.5
342 1 0.768874 0.622869 0.5
344 1 0.815808 0.626489 0.5
346 1 0.865202 0.631683 0.5
347 1 0.893149 0.585128 0.5
348 1 0.915219 0.633163 0.5
121 1 0.988395 0.588672 0.5
349 1 0.942937 0.58422 0.5
350 1 0.964241 0.636007 0.5
353 1 0.524127 0.700097 0.5
354 1 0.572333 0.70234 0.5
356 1 0.622515 0.708593 0.5
357 1 0.643971 0.659733 0.5
358 1 0.670318 0.710897 0.5
359 1 0.695626 0.666008 0.5
360 1 0.717699 0.716164 0.5
361 1 0.744702 0.669479 0.5
363 1 0.791872 0.67513 0.5
362 1 0.766566 0.722368 0.5
365 1 0.839532 0.676566 0.5
367 1 0.88907 0.682364 0.5
141 1 0.984699 0.686338 0.5
369 1 0.937584 0.683991 0.5
373 1 0.548504 0.749006 0.5
372 1 0.517446 0.791911 0.5
375 1 0.597202 0.753494 0.5
374 1 0.569885 0.797887 0.5
377 1 0.644676 0.758887 0.5
379 1 0.692805 0.763206 0.5
381 1 0.739828 0.771032 0.5
383 1 0.789391 0.77489 0.5
364 1 0.816601 0.726295 0.5
366 1 0.862634 0.729877 0.5
385 1 0.83584 0.778426 0.5
368 1 0.913175 0.73104 0.5
387 1 0.88628 0.781893 0.5
370 1 0.96084 0.73577 0.5
389 1 0.934384 0.781755 0.5
161 1 0.981628 0.78724 0.5
393 1 0.541706 0.84089 0.5
376 1 0.619282 0.80655 0.5
395 1 0.590719 0.849691 0.5
378 1 0.666506 0.809885 0.5
397 1 0.639286 0.858578 0.5
399 1 0.687171 0.867686 0.5
380 1 0.712574 0.816933 0.5
401 1 0.736352 0.869155 0.5
382 1 0.760892 0.823099 0.5
384 1 0.810288 0.826328 0.5
386 1 0.861576 0.829513 0.5
388 1 0.908365 0.833152 0.5
390 1 0.957687 0.836469 0.5
392 1 0.511942 0.884821 0.5
394 1 0.561342 0.890396 0.5
412 1 0.534511 0.934348 0.5
396 1 0.610493 0.899837 0.5
398 1 0.658749 0.915321 0.5
400 1 0.708717 0.921783 0.5
403 1 0.784448 0.874013 0.5
402 1 0.756825 0.923255 0.5
404 1 0.807025 0.925231 0.5
405 1 0.833508 0.877096 0.5
406 1 0.856257 0.928156 0.5
407 1 0.879581 0.880796 0.5
409 1 0.927791 0.884857 0.5
408 1 0.905378 0.932947 0.5
410 1 0.954447 0.933324 0.5
181 1 0.977126 0.886616 0.5
413 1 0.58197 0.945303 0.5
414 1 0.631156 0.95899 0.5
415 1 0.680732 0.969738 0.5
416 1 0.727263 0.973561 0.5
417 1 0.777029 0.973479 0.5
418 1 0.826622 0.976176 0.5
420 1 0.929054 0.983734 0.5
419 1 0.878157 0.983668 0.5
201 1 0.9752 0.984878 0.5
317 1 0.627002 0.510565 0.5
315 1 0.578483 0.504366 0.5
