ITEM: TIMESTEP
2750
ITEM: NUMBER OF ATOMS
420
ITEM: BOX BOUNDS pp ss pp
0.0000000000000000e+00 2.2653923264628304e+01
-1.9618873042551413e-03 1.9839261804607386e+01
-2.8317404080785380e-01 2.8317404080785380e-01
ITEM: ATOMS id type xs ys zs
1 2 0 9.88794e-05 0.5
2 2 0.025 0.0495386 0.5
3 2 0.05 9.88794e-05 0.5
4 2 0.075 0.0495386 0.5
5 2 0.1 9.88794e-05 0.5
6 2 0.125 0.0495386 0.5
7 2 0.15 9.88794e-05 0.5
8 2 0.175 0.0495386 0.5
9 2 0.2 9.88794e-05 0.5
10 2 0.225 0.0495386 0.5
11 2 0.25 9.88794e-05 0.5
12 2 0.275 0.0495386 0.5
13 2 0.3 9.88794e-05 0.5
14 2 0.325 0.0495386 0.5
15 2 0.35 9.88794e-05 0.5
16 2 0.375 0.0495386 0.5
17 2 0.4 9.88794e-05 0.5
18 2 0.425 0.0495386 0.5
19 2 0.45 9.88794e-05 0.5
20 2 0.475 0.0495386 0.5
21 2 0 0.0989782 0.5
23 2 0.05 0.0989782 0.5
25 2 0.1 0.0989782 0.5
27 2 0.15 0.0989782 0.5
29 2 0.2 0.0989782 0.5
31 2 0.25 0.0989782 0.5
33 2 0.3 0.0989782 0.5
35 2 0.35 0.0989782 0.5
37 2 0.4 0.0989782 0.5
39 2 0.45 0.0989782 0.5
22 1 0.0262793 0.15335 0.5
43 1 0.0509747 0.199817 0.5
24 1 0.0758968 0.148923 0.5
45 1 0.0998681 0.199325 0.5
26 1 0.124596 0.149173 0.5
28 1 0.174024 0.148261 0.5
47 1 0.148434 0.199187 0.5
30 1 0.224522 0.147247 0.5
49 1 0.199792 0.199432 0.5
32 1 0.273297 0.147139 0.5
51 1 0.247879 0.196285 0.5
53 1 0.300615 0.197269 0.5
34 1 0.323553 0.149991 0.5
55 1 0.351875 0.196824 0.5
36 1 0.376328 0.149033 0.5
38 1 0.427312 0.146239 0.5
57 1 0.402581 0.198971 0.5
40 1 0.475742 0.150945 0.5
59 1 0.453743 0.201435 0.5
98 1 0.425422 0.444117 0.5
42 1 0.0268701 0.250106 0.5
44 1 0.0753024 0.247353 0.5
46 1 0.126748 0.247689 0.5
48 1 0.178386 0.247211 0.5
50 1 0.226945 0.246765 0.5
52 1 0.276008 0.247007 0.5
54 1 0.329775 0.247361 0.5
56 1 0.377967 0.248791 0.5
58 1 0.426417 0.24693 0.5
60 1 0.478255 0.248717 0.5
63 1 0.0498515 0.295988 0.5
62 1 0.0238573 0.345711 0.5
65 1 0.0989299 0.295642 0.5
64 1 0.0737359 0.345549 0.5
66 1 0.122747 0.341099 0.5
67 1 0.149779 0.294295 0.5
68 1 0.172793 0.341374 0.5
69 1 0.20218 0.294889 0.5
70 1 0.224554 0.34274 0.5
71 1 0.253833 0.294687 0.5
73 1 0.301843 0.295275 0.5
72 1 0.276031 0.345388 0.5
75 1 0.352973 0.29788 0.5
74 1 0.325491 0.344188 0.5
77 1 0.402686 0.298357 0.5
76 1 0.374631 0.347045 0.5
78 1 0.424264 0.347992 0.5
79 1 0.453197 0.298287 0.5
80 1 0.475239 0.348611 0.5
83 1 0.049009 0.39319 0.5
94 1 0.32536 0.446349 0.5
85 1 0.10217 0.392747 0.5
87 1 0.149855 0.39188 0.5
89 1 0.200129 0.390694 0.5
91 1 0.25047 0.391759 0.5
93 1 0.301735 0.397745 0.5
95 1 0.349961 0.397823 0.5
97 1 0.398582 0.396298 0.5
99 1 0.451211 0.397416 0.5
82 1 0.0240779 0.444091 0.5
107 1 0.149836 0.488194 0.5
100 1 0.472722 0.448544 0.5
84 1 0.0745914 0.443815 0.5
86 1 0.124387 0.441761 0.5
88 1 0.174315 0.438885 0.5
90 1 0.226687 0.437996 0.5
103 1 0.0497292 0.493125 0.5
92 1 0.277253 0.44456 0.5
96 1 0.376376 0.447654 0.5
119 1 0.451608 0.49916 0.5
109 1 0.201418 0.486545 0.5
115 1 0.3472 0.497978 0.5
105 1 0.10037 0.48946 0.5
111 1 0.24938 0.489284 0.5
117 1 0.399817 0.495277 0.5
113 1 0.298985 0.495114 0.5
291 1 0.500068 0.400314 0.5
102 1 0.0259171 0.543525 0.5
104 1 0.0755245 0.5403 0.5
106 1 0.12649 0.539297 0.5
108 1 0.176099 0.540614 0.5
200 1 0.477714 0.937872 0.5
110 1 0.226825 0.544858 0.5
112 1 0.274427 0.542815 0.5
114 1 0.323897 0.546936 0.5
116 1 0.374628 0.546596 0.5
118 1 0.427048 0.545648 0.5
120 1 0.476127 0.548536 0.5
123 1 0.05079 0.589378 0.5
161 1 0.00130427 0.793477 0.5
125 1 0.100448 0.590814 0.5
127 1 0.149176 0.592453 0.5
129 1 0.197653 0.593241 0.5
131 1 0.248728 0.592589 0.5
133 1 0.301768 0.595282 0.5
135 1 0.34889 0.595983 0.5
137 1 0.396817 0.59522 0.5
139 1 0.44945 0.596929 0.5
210 1 0.451805 0.983805 0.5
122 1 0.0254887 0.644267 0.5
143 1 0.0502228 0.694299 0.5
181 1 -0.000733833 0.891043 0.5
124 1 0.0731319 0.641167 0.5
145 1 0.100801 0.694028 0.5
126 1 0.12304 0.645435 0.5
128 1 0.174718 0.641372 0.5
147 1 0.151268 0.69137 0.5
130 1 0.22318 0.643059 0.5
149 1 0.200135 0.694437 0.5
132 1 0.273732 0.6404 0.5
151 1 0.251859 0.690259 0.5
153 1 0.299257 0.691665 0.5
134 1 0.325527 0.644608 0.5
136 1 0.375178 0.642881 0.5
155 1 0.348535 0.693335 0.5
138 1 0.42305 0.641674 0.5
157 1 0.397137 0.691718 0.5
140 1 0.474357 0.644892 0.5
159 1 0.448002 0.691303 0.5
142 1 0.0270592 0.743802 0.5
144 1 0.0751315 0.741863 0.5
146 1 0.125724 0.742152 0.5
148 1 0.17641 0.740688 0.5
150 1 0.226347 0.739826 0.5
152 1 0.276844 0.741331 0.5
154 1 0.3261 0.740927 0.5
156 1 0.375786 0.742451 0.5
158 1 0.424666 0.74312 0.5
160 1 0.473356 0.741637 0.5
163 1 0.050946 0.792873 0.5
162 1 0.0255126 0.843348 0.5
165 1 0.100745 0.790116 0.5
164 1 0.0786271 0.839734 0.5
166 1 0.126828 0.838411 0.5
167 1 0.153398 0.78935 0.5
168 1 0.178538 0.837805 0.5
169 1 0.201524 0.789389 0.5
170 1 0.228815 0.839597 0.5
171 1 0.252094 0.791203 0.5
173 1 0.3013 0.788743 0.5
172 1 0.27877 0.839699 0.5
175 1 0.349146 0.788525 0.5
174 1 0.326093 0.836177 0.5
177 1 0.399993 0.788678 0.5
176 1 0.377556 0.841214 0.5
178 1 0.424065 0.840437 0.5
179 1 0.450159 0.793184 0.5
180 1 0.475284 0.838859 0.5
183 1 0.0500527 0.890158 0.5
185 1 0.101724 0.890002 0.5
187 1 0.150696 0.886984 0.5
189 1 0.20189 0.887464 0.5
191 1 0.252527 0.891777 0.5
193 1 0.300081 0.893589 0.5
195 1 0.349929 0.887358 0.5
197 1 0.401137 0.89229 0.5
199 1 0.452072 0.888079 0.5
182 1 0.026881 0.941863 0.5
202 1 0.0529739 0.990158 0.5
184 1 0.0739344 0.938927 0.5
203 1 0.10142 0.986161 0.5
186 1 0.128143 0.93763 0.5
204 1 0.148988 0.988495 0.5
188 1 0.176272 0.935168 0.5
190 1 0.225681 0.938457 0.5
206 1 0.252704 0.991016 0.5
205 1 0.19821 0.987935 0.5
192 1 0.275747 0.940156 0.5
207 1 0.300119 0.994964 0.5
194 1 0.323202 0.941781 0.5
208 1 0.350505 0.986753 0.5
196 1 0.375362 0.939446 0.5
198 1 0.427642 0.938704 0.5
209 1 0.400702 0.988694 0.5
141 1 0.00085091 0.693663 0.5
201 1 0.00225205 0.990831 0.5
211 2 0.5 9.88794e-05 0.5
212 2 0.525 0.0495386 0.5
213 2 0.55 9.88794e-05 0.5
214 2 0.575 0.0495386 0.5
215 2 0.6 9.88794e-05 0.5
216 2 0.625 0.0495386 0.5
217 2 0.65 9.88794e-05 0.5
218 2 0.675 0.0495386 0.5
219 2 0.7 9.88794e-05 0.5
220 2 0.725 0.0495386 0.5
221 2 0.75 9.88794e-05 0.5
222 2 0.775 0.0495386 0.5
223 2 0.8 9.88794e-05 0.5
224 2 0.825 0.0495386 0.5
225 2 0.85 9.88794e-05 0.5
226 2 0.875 0.0495386 0.5
227 2 0.9 9.88794e-05 0.5
228 2 0.925 0.0495386 0.5
229 2 0.95 9.88794e-05 0.5
230 2 0.975 0.0495386 0.5
231 2 0.5 0.0989782 0.5
233 2 0.55 0.0989782 0.5
235 2 0.6 0.0989782 0.5
237 2 0.65 0.0989782 0.5
239 2 0.7 0.0989782 0.5
241 2 0.75 0.0989782 0.5
243 2 0.8 0.0989782 0.5
245 2 0.85 0.0989782 0.5
247 2 0.9 0.0989782 0.5
249 2 0.95 0.0989782 0.5
232 1 0.524001 0.149016 0.5
253 1 0.550142 0.199261 0.5
234 1 0.577559 0.148446 0.5
255 1 0.601898 0.199895 0.5
236 1 0.625968 0.14809 0.5
238 1 0.675085 0.150322 0.5
257 1 0.651428 0.198814 0.5
240 1 0.726587 0.147654 0.5
259 1 0.701476 0.197249 0.5
261 1 0.749496 0.197805 0.5
242 1 0.776036 0.147237 0.5
263 1 0.797673 0.196903 0.5
244 1 0.825191 0.148489 0.5
246 1 0.875103 0.148867 0.5
265 1 0.846174 0.200718 0.5
248 1 0.926176 0.148019 0.5
267 1 0.90005 0.198003 0.5
250 1 0.976467 0.152638 0.5
269 1 0.951484 0.19866 0.5
306 1 0.871038 0.446651 0.5
252 1 0.528508 0.248908 0.5
254 1 0.576102 0.248423 0.5
256 1 0.624288 0.247493 0.5
258 1 0.674596 0.250899 0.5
260 1 0.724515 0.248209 0.5
262 1 0.773878 0.246659 0.5
264 1 0.822288 0.248098 0.5
266 1 0.8722 0.246049 0.5
268 1 0.921322 0.248189 0.5
270 1 0.974002 0.250107 0.5
273 1 0.549275 0.298202 0.5
272 1 0.526439 0.349624 0.5
317 1 0.647737 0.496231 0.5
275 1 0.598686 0.295252 0.5
274 1 0.576173 0.348663 0.5
276 1 0.62385 0.351623 0.5
277 1 0.646158 0.298382 0.5
278 1 0.674675 0.34641 0.5
279 1 0.701055 0.296792 0.5
281 1 0.74934 0.300193 0.5
280 1 0.723679 0.345702 0.5
283 1 0.798081 0.297928 0.5
282 1 0.774913 0.349897 0.5
285 1 0.846912 0.294624 0.5
284 1 0.824519 0.346684 0.5
286 1 0.875398 0.343072 0.5
287 1 0.899904 0.296568 0.5
288 1 0.923762 0.349661 0.5
289 1 0.949755 0.297523 0.5
290 1 0.974738 0.345665 0.5
304 1 0.823551 0.446168 0.5
293 1 0.549158 0.400617 0.5
302 1 0.771165 0.446076 0.5
295 1 0.599285 0.399777 0.5
297 1 0.650895 0.398455 0.5
299 1 0.698444 0.397449 0.5
301 1 0.747789 0.399002 0.5
303 1 0.79827 0.397968 0.5
305 1 0.84864 0.396162 0.5
307 1 0.899171 0.400401 0.5
309 1 0.950592 0.400853 0.5
271 1 0.50142 0.299649 0.5
292 1 0.522727 0.452006 0.5
294 1 0.573898 0.45004 0.5
296 1 0.624471 0.447789 0.5
325 1 0.84747 0.496529 0.5
298 1 0.672358 0.446732 0.5
319 1 0.698912 0.494449 0.5
310 1 0.97301 0.450229 0.5
300 1 0.720291 0.444532 0.5
308 1 0.920459 0.44942 0.5
329 1 0.94735 0.498075 0.5
81 1 0.999887 0.396424 0.5
327 1 0.897162 0.49909 0.5
41 1 1.0001 0.20185 0.5
321 1 0.747679 0.495367 0.5
315 1 0.598903 0.495891 0.5
323 1 0.799436 0.497645 0.5
61 1 0.99943 0.297933 0.5
251 1 0.50217 0.198238 0.5
101 1 0.997639 0.494153 0.5
312 1 0.525699 0.549806 0.5
314 1 0.57639 0.545882 0.5
316 1 0.624565 0.546834 0.5
318 1 0.67592 0.542932 0.5
320 1 0.722593 0.543253 0.5
322 1 0.770638 0.544106 0.5
324 1 0.821383 0.546726 0.5
326 1 0.870761 0.547895 0.5
328 1 0.921413 0.546669 0.5
408 1 0.924173 0.941155 0.5
330 1 0.975501 0.546109 0.5
333 1 0.552109 0.596953 0.5
332 1 0.526555 0.646173 0.5
335 1 0.602212 0.594852 0.5
334 1 0.576031 0.647929 0.5
337 1 0.651437 0.594327 0.5
339 1 0.699855 0.592552 0.5
340 1 0.724674 0.642229 0.5
341 1 0.750989 0.595118 0.5
343 1 0.799621 0.59447 0.5
345 1 0.848301 0.594764 0.5
347 1 0.900038 0.59605 0.5
349 1 0.948002 0.59383 0.5
353 1 0.549227 0.695479 0.5
351 1 0.500803 0.694859 0.5
336 1 0.626912 0.645356 0.5
355 1 0.60117 0.694913 0.5
338 1 0.675048 0.645531 0.5
357 1 0.649799 0.694464 0.5
359 1 0.701406 0.690858 0.5
361 1 0.749729 0.689385 0.5
342 1 0.773828 0.644009 0.5
363 1 0.798366 0.694313 0.5
344 1 0.823008 0.645943 0.5
346 1 0.871862 0.642758 0.5
365 1 0.847829 0.692047 0.5
348 1 0.924286 0.645575 0.5
367 1 0.895192 0.689032 0.5
350 1 0.973713 0.646609 0.5
369 1 0.94978 0.69541 0.5
352 1 0.524928 0.743901 0.5
354 1 0.578705 0.741981 0.5
356 1 0.625887 0.743992 0.5
358 1 0.676386 0.743452 0.5
360 1 0.729181 0.741073 0.5
362 1 0.776512 0.744896 0.5
364 1 0.826432 0.744125 0.5
366 1 0.877015 0.743873 0.5
368 1 0.926336 0.745236 0.5
370 1 0.976414 0.740933 0.5
373 1 0.554229 0.789437 0.5
372 1 0.526529 0.839995 0.5
121 1 1.00091 0.595829 0.5
375 1 0.602694 0.790806 0.5
374 1 0.577471 0.837597 0.5
376 1 0.628068 0.844214 0.5
377 1 0.651506 0.796356 0.5
378 1 0.679702 0.841111 0.5
379 1 0.702766 0.790407 0.5
381 1 0.750364 0.798088 0.5
380 1 0.727829 0.849495 0.5
383 1 0.800896 0.794428 0.5
382 1 0.776178 0.848694 0.5
385 1 0.847629 0.795302 0.5
384 1 0.824017 0.843507 0.5
386 1 0.87472 0.845185 0.5
387 1 0.901473 0.794113 0.5
388 1 0.926899 0.842817 0.5
389 1 0.951805 0.792878 0.5
390 1 0.975203 0.842789 0.5
331 1 0.50209 0.598489 0.5
393 1 0.554434 0.890026 0.5
410 1 0.973347 0.938425 0.5
395 1 0.602672 0.891454 0.5
397 1 0.655838 0.891771 0.5
399 1 0.704201 0.895097 0.5
401 1 0.753078 0.897651 0.5
403 1 0.802785 0.895546 0.5
405 1 0.851258 0.895028 0.5
407 1 0.900038 0.893327 0.5
409 1 0.950013 0.89281 0.5
371 1 0.501754 0.792235 0.5
392 1 0.528865 0.939569 0.5
412 1 0.557155 0.992033 0.5
420 1 0.947075 0.986961 0.5
396 1 0.631095 0.940736 0.5
394 1 0.579639 0.942897 0.5
413 1 0.608055 0.988387 0.5
398 1 0.677688 0.942555 0.5
414 1 0.658975 0.996001 0.5
415 1 0.706095 0.997073 0.5
416 1 0.753895 0.994214 0.5
400 1 0.726575 0.945232 0.5
402 1 0.777606 0.945963 0.5
417 1 0.806329 0.994154 0.5
406 1 0.874698 0.943596 0.5
418 1 0.854362 0.993912 0.5
404 1 0.826239 0.943851 0.5
419 1 0.901216 0.990456 0.5
411 1 0.501414 0.986345 0.5
391 1 0.501551 0.891119 0.5
313 1 0.551033 0.500843 0.5
311 1 0.500073 0.499901 0.5
