ITEM: TIMESTEP
58750
ITEM: NUMBER OF ATOMS
420
ITEM: BOX BOUNDS pp ss pp
0.0000000000000000e+00 2.2653923264628304e+01
-1.9618873042551413e-03 2.0498541962014340e+01
-2.8317404080785380e-01 2.8317404080785380e-01
ITEM: ATOMS id type xs ys zs
1 2 0 9.56995e-05 0.5
2 2 0.025 0.0479454 0.5
3 2 0.05 9.56995e-05 0.5
4 2 0.075 0.0479454 0.5
5 2 0.1 9.56995e-05 0.5
6 2 0.125 0.0479454 0.5
7 2 0.15 9.56995e-05 0.5
8 2 0.175 0.0479454 0.5
9 2 0.2 9.56995e-05 0.5
10 2 0.225 0.0479454 0.5
11 2 0.25 9.56995e-05 0.5
12 2 0.275 0.0479454 0.5
13 2 0.3 9.56995e-05 0.5
14 2 0.325 0.0479454 0.5
15 2 0.35 9.56995e-05 0.5
16 2 0.375 0.0479454 0.5
17 2 0.4 9.56995e-05 0.5
18 2 0.425 0.0479454 0.5
19 2 0.45 9.56995e-05 0.5
20 2 0.475 0.0479454 0.5
21 2 0 0.0957952 0.5
23 2 0.05 0.0957952 0.5
25 2 0.1 0.0957952 0.5
26 1 0.1261 0.140606 0.5
27 2 0.15 0.0957952 0.5
28 1 0.174803 0.1436 0.5
29 2 0.2 0.0957952 0.5
31 2 0.25 0.0957952 0.5
33 2 0.3 0.0957952 0.5
32 1 0.272981 0.147012 0.5
35 2 0.35 0.0957952 0.5
37 2 0.4 0.0957952 0.5
39 2 0.45 0.0957952 0.5
22 1 0.0244938 0.143084 0.5
43 1 0.0488437 0.187872 0.5
24 1 0.0730995 0.140322 0.5
45 1 0.0980636 0.184996 0.5
47 1 0.148639 0.188756 0.5
30 1 0.222825 0.142031 0.5
49 1 0.197292 0.190312 0.5
51 1 0.245659 0.19382 0.5
53 1 0.297695 0.193847 0.5
34 1 0.322617 0.141241 0.5
55 1 0.345941 0.188836 0.5
36 1 0.376286 0.145472 0.5
38 1 0.425722 0.143903 0.5
57 1 0.400106 0.191685 0.5
40 1 0.475392 0.144759 0.5
59 1 0.450198 0.190958 0.5
251 1 0.499051 0.189715 0.5
42 1 0.0222052 0.236626 0.5
119 1 0.446088 0.473972 0.5
44 1 0.07407 0.233622 0.5
65 1 0.0984755 0.282472 0.5
46 1 0.124065 0.235543 0.5
48 1 0.172151 0.238329 0.5
67 1 0.148978 0.285688 0.5
50 1 0.224489 0.240263 0.5
69 1 0.198156 0.286248 0.5
71 1 0.249263 0.287203 0.5
52 1 0.273325 0.243321 0.5
73 1 0.296877 0.288218 0.5
54 1 0.323334 0.237477 0.5
56 1 0.373998 0.23695 0.5
58 1 0.423365 0.241133 0.5
60 1 0.471892 0.238581 0.5
79 1 0.448427 0.289659 0.5
63 1 0.0472047 0.283119 0.5
62 1 0.0239427 0.331455 0.5
64 1 0.0714663 0.331394 0.5
66 1 0.12333 0.328876 0.5
68 1 0.172505 0.333295 0.5
70 1 0.22228 0.334643 0.5
72 1 0.270082 0.335657 0.5
75 1 0.346692 0.284069 0.5
74 1 0.322475 0.332302 0.5
76 1 0.370476 0.332422 0.5
77 1 0.398376 0.28885 0.5
78 1 0.422272 0.333792 0.5
80 1 0.473677 0.333914 0.5
311 1 0.497692 0.475883 0.5
83 1 0.0477083 0.378227 0.5
82 1 0.0206278 0.428307 0.5
100 1 0.473065 0.427764 0.5
85 1 0.0968153 0.380272 0.5
84 1 0.0686094 0.427004 0.5
87 1 0.144275 0.378781 0.5
86 1 0.119103 0.430446 0.5
89 1 0.196607 0.379582 0.5
91 1 0.247827 0.38236 0.5
93 1 0.296895 0.378624 0.5
92 1 0.269769 0.426092 0.5
95 1 0.346716 0.379472 0.5
97 1 0.397535 0.3797 0.5
99 1 0.450237 0.378941 0.5
98 1 0.419736 0.425555 0.5
103 1 0.0485879 0.475436 0.5
107 1 0.0947245 0.474541 0.5
88 1 0.170719 0.423859 0.5
109 1 0.150075 0.472942 0.5
111 1 0.198255 0.475997 0.5
90 1 0.222081 0.42615 0.5
112 1 0.246287 0.472474 0.5
113 1 0.293978 0.473959 0.5
115 1 0.342157 0.475825 0.5
94 1 0.320506 0.427504 0.5
96 1 0.371063 0.425481 0.5
117 1 0.396346 0.475202 0.5
271 1 0.497999 0.28564 0.5
102 1 0.0212311 0.523762 0.5
104 1 0.0478023 0.569285 0.5
105 1 0.0712373 0.523737 0.5
108 1 0.120026 0.521962 0.5
106 1 0.0970183 0.570638 0.5
110 1 0.169684 0.520151 0.5
129 1 0.145116 0.571095 0.5
133 1 0.219171 0.523126 0.5
131 1 0.193759 0.56816 0.5
135 1 0.268795 0.521905 0.5
114 1 0.318135 0.522406 0.5
137 1 0.343548 0.567601 0.5
116 1 0.368695 0.52186 0.5
118 1 0.418709 0.521322 0.5
139 1 0.392555 0.567172 0.5
120 1 0.470463 0.519793 0.5
331 1 0.44442 0.570608 0.5
333 1 0.493119 0.569536 0.5
123 1 0.0226609 0.619494 0.5
125 1 0.0733259 0.617267 0.5
127 1 0.121301 0.620248 0.5
130 1 0.174508 0.616896 0.5
134 1 0.24476 0.57024 0.5
132 1 0.222962 0.621325 0.5
136 1 0.293509 0.567288 0.5
155 1 0.272613 0.617885 0.5
157 1 0.320962 0.615459 0.5
138 1 0.371162 0.615364 0.5
140 1 0.420247 0.616741 0.5
332 1 0.469785 0.617316 0.5
124 1 0.0487837 0.669933 0.5
143 1 0.0237601 0.71607 0.5
126 1 0.0973729 0.665503 0.5
145 1 0.0724067 0.71454 0.5
147 1 0.122578 0.712659 0.5
128 1 0.148397 0.665221 0.5
149 1 0.172583 0.713086 0.5
151 1 0.197365 0.665523 0.5
152 1 0.22114 0.714517 0.5
153 1 0.247996 0.665736 0.5
156 1 0.297554 0.666252 0.5
154 1 0.269841 0.712034 0.5
158 1 0.347428 0.659928 0.5
177 1 0.319648 0.713824 0.5
159 1 0.394611 0.663547 0.5
160 1 0.418242 0.71005 0.5
351 1 0.443484 0.663792 0.5
352 1 0.468561 0.709952 0.5
353 1 0.494667 0.66339 0.5
144 1 0.0468473 0.762454 0.5
146 1 0.0962327 0.763194 0.5
148 1 0.145637 0.759863 0.5
150 1 0.196651 0.761439 0.5
173 1 0.244222 0.760239 0.5
175 1 0.29256 0.759307 0.5
178 1 0.343754 0.758383 0.5
179 1 0.366731 0.709357 0.5
180 1 0.394973 0.758109 0.5
371 1 0.442488 0.757484 0.5
163 1 0.0221247 0.806994 0.5
164 1 0.0473932 0.853979 0.5
165 1 0.0719574 0.808983 0.5
166 1 0.0956897 0.856558 0.5
167 1 0.119325 0.808149 0.5
169 1 0.170714 0.808324 0.5
168 1 0.144872 0.854606 0.5
171 1 0.219281 0.811811 0.5
170 1 0.194596 0.859126 0.5
172 1 0.244926 0.856152 0.5
174 1 0.269392 0.807269 0.5
195 1 0.295982 0.854305 0.5
176 1 0.319438 0.807152 0.5
197 1 0.345038 0.854759 0.5
199 1 0.368972 0.804529 0.5
391 1 0.418243 0.80547 0.5
210 1 0.391976 0.84946 0.5
411 1 0.467459 0.807403 0.5
200 1 0.440047 0.854356 0.5
392 1 0.493887 0.857457 0.5
183 1 0.02342 0.900715 0.5
185 1 0.0715316 0.902759 0.5
187 1 0.121327 0.903276 0.5
189 1 0.171373 0.90512 0.5
191 1 0.222747 0.906241 0.5
193 1 0.274285 0.902059 0.5
196 1 0.322259 0.901329 0.5
198 1 0.37469 0.900073 0.5
184 1 0.048574 0.950178 0.5
202 1 0.022485 0.999155 0.5
203 1 0.0752888 0.996855 0.5
186 1 0.0986887 0.950185 0.5
204 1 0.125918 1.00071 0.5
188 1 0.145512 0.951045 0.5
205 1 0.173317 0.997867 0.5
206 1 0.22441 0.998274 0.5
190 1 0.195727 0.951783 0.5
192 1 0.246299 0.951483 0.5
207 1 0.279624 0.998835 0.5
194 1 0.297223 0.946662 0.5
208 1 0.32671 0.993444 0.5
209 1 0.348896 0.946634 0.5
372 1 0.490478 0.759296 0.5
211 2 0.5 9.56995e-05 0.5
212 2 0.525 0.0479454 0.5
213 2 0.55 9.56995e-05 0.5
214 2 0.575 0.0479454 0.5
215 2 0.6 9.56995e-05 0.5
216 2 0.625 0.0479454 0.5
217 2 0.65 9.56995e-05 0.5
218 2 0.675 0.0479454 0.5
219 2 0.7 9.56995e-05 0.5
220 2 0.725 0.0479454 0.5
221 2 0.75 9.56995e-05 0.5
222 2 0.775 0.0479454 0.5
223 2 0.8 9.56995e-05 0.5
224 2 0.825 0.0479454 0.5
225 2 0.85 9.56995e-05 0.5
226 2 0.875 0.0479454 0.5
227 2 0.9 9.56995e-05 0.5
228 2 0.925 0.0479454 0.5
229 2 0.95 9.56995e-05 0.5
230 2 0.975 0.0479454 0.5
231 2 0.5 0.0957952 0.5
233 2 0.55 0.0957952 0.5
232 1 0.523557 0.143463 0.5
235 2 0.6 0.0957952 0.5
237 2 0.65 0.0957952 0.5
238 1 0.6753 0.142409 0.5
239 2 0.7 0.0957952 0.5
241 2 0.75 0.0957952 0.5
243 2 0.8 0.0957952 0.5
242 1 0.775808 0.143635 0.5
245 2 0.85 0.0957952 0.5
244 1 0.823381 0.142254 0.5
246 1 0.872091 0.143994 0.5
247 2 0.9 0.0957952 0.5
248 1 0.921794 0.140325 0.5
249 2 0.95 0.0957952 0.5
253 1 0.547518 0.188256 0.5
234 1 0.575476 0.142641 0.5
255 1 0.600028 0.187063 0.5
236 1 0.625003 0.142006 0.5
257 1 0.648631 0.192034 0.5
240 1 0.722756 0.141372 0.5
259 1 0.697448 0.191428 0.5
261 1 0.747395 0.189285 0.5
263 1 0.79649 0.190854 0.5
265 1 0.848274 0.189759 0.5
267 1 0.898986 0.189287 0.5
250 1 0.972228 0.144362 0.5
269 1 0.947933 0.191195 0.5
81 1 0.997751 0.381218 0.5
252 1 0.520798 0.235933 0.5
273 1 0.548289 0.28037 0.5
254 1 0.574319 0.235791 0.5
275 1 0.598984 0.283738 0.5
256 1 0.623147 0.239394 0.5
258 1 0.673473 0.23828 0.5
277 1 0.650457 0.285635 0.5
260 1 0.722025 0.237218 0.5
279 1 0.696949 0.284525 0.5
281 1 0.749902 0.288392 0.5
262 1 0.77343 0.236719 0.5
283 1 0.800784 0.287336 0.5
264 1 0.82371 0.237604 0.5
266 1 0.874021 0.237091 0.5
285 1 0.849793 0.286386 0.5
268 1 0.922885 0.238487 0.5
287 1 0.900098 0.285413 0.5
270 1 0.97098 0.240803 0.5
272 1 0.523704 0.331348 0.5
274 1 0.574865 0.331659 0.5
276 1 0.622376 0.33044 0.5
278 1 0.674758 0.33351 0.5
280 1 0.723533 0.33202 0.5
282 1 0.775669 0.335566 0.5
284 1 0.824152 0.334466 0.5
286 1 0.873639 0.334042 0.5
288 1 0.923222 0.336233 0.5
289 1 0.947663 0.287392 0.5
290 1 0.973237 0.335912 0.5
293 1 0.549956 0.379779 0.5
292 1 0.524429 0.427225 0.5
295 1 0.598963 0.378435 0.5
294 1 0.574913 0.426367 0.5
296 1 0.6213 0.426974 0.5
297 1 0.645955 0.38061 0.5
298 1 0.6722 0.427323 0.5
299 1 0.69733 0.38003 0.5
300 1 0.723397 0.425399 0.5
301 1 0.748938 0.380606 0.5
303 1 0.796664 0.384117 0.5
305 1 0.846676 0.381988 0.5
304 1 0.821943 0.428003 0.5
306 1 0.872003 0.428292 0.5
308 1 0.921112 0.430226 0.5
307 1 0.896632 0.381182 0.5
310 1 0.97241 0.429961 0.5
309 1 0.945668 0.383354 0.5
313 1 0.548344 0.473914 0.5
101 1 0.997379 0.47434 0.5
315 1 0.59903 0.473993 0.5
317 1 0.646941 0.470937 0.5
319 1 0.695239 0.473793 0.5
321 1 0.745312 0.475098 0.5
302 1 0.77039 0.430154 0.5
323 1 0.793731 0.475371 0.5
325 1 0.845866 0.4789 0.5
327 1 0.896188 0.475154 0.5
329 1 0.946384 0.476216 0.5
41 1 0.998324 0.191865 0.5
61 1 0.998343 0.285756 0.5
291 1 0.500055 0.382485 0.5
312 1 0.524057 0.521887 0.5
335 1 0.545036 0.569098 0.5
314 1 0.572523 0.521907 0.5
336 1 0.594347 0.567115 0.5
316 1 0.620315 0.520583 0.5
318 1 0.672976 0.521035 0.5
337 1 0.648433 0.565996 0.5
320 1 0.720907 0.522914 0.5
341 1 0.748737 0.570758 0.5
339 1 0.696096 0.570089 0.5
322 1 0.769584 0.523248 0.5
343 1 0.796776 0.572426 0.5
324 1 0.818462 0.524218 0.5
326 1 0.872918 0.523346 0.5
345 1 0.84769 0.569276 0.5
328 1 0.921237 0.523698 0.5
347 1 0.899862 0.570901 0.5
330 1 0.96974 0.52331 0.5
349 1 0.949108 0.572894 0.5
121 1 0.998168 0.572547 0.5
334 1 0.520965 0.614967 0.5
355 1 0.571509 0.617485 0.5
357 1 0.619638 0.614556 0.5
338 1 0.668506 0.615218 0.5
340 1 0.721017 0.617814 0.5
342 1 0.772565 0.617563 0.5
344 1 0.82284 0.620592 0.5
346 1 0.874054 0.617991 0.5
348 1 0.923775 0.617222 0.5
350 1 0.973314 0.621501 0.5
354 1 0.543553 0.661852 0.5
373 1 0.517586 0.712332 0.5
356 1 0.594328 0.663003 0.5
375 1 0.568152 0.710728 0.5
377 1 0.616394 0.711807 0.5
358 1 0.643581 0.664477 0.5
379 1 0.671091 0.712633 0.5
359 1 0.693243 0.664893 0.5
361 1 0.744996 0.662886 0.5
360 1 0.721648 0.711168 0.5
363 1 0.797729 0.66526 0.5
362 1 0.769041 0.7091 0.5
365 1 0.848477 0.666152 0.5
364 1 0.819087 0.713071 0.5
366 1 0.873076 0.714418 0.5
367 1 0.89656 0.663502 0.5
368 1 0.921926 0.712744 0.5
369 1 0.947687 0.665092 0.5
141 1 0.972257 0.712783 0.5
122 1 0.999143 0.668833 0.5
374 1 0.54457 0.759975 0.5
182 1 0.999455 0.95098 0.5
376 1 0.594381 0.760555 0.5
378 1 0.646109 0.759509 0.5
380 1 0.695985 0.75989 0.5
381 1 0.74714 0.761576 0.5
383 1 0.79691 0.758291 0.5
385 1 0.844011 0.761619 0.5
387 1 0.896228 0.758567 0.5
370 1 0.945049 0.759538 0.5
410 1 0.948794 0.952338 0.5
393 1 0.517956 0.803828 0.5
412 1 0.546088 0.850049 0.5
394 1 0.570013 0.806478 0.5
395 1 0.621247 0.808527 0.5
397 1 0.675243 0.805185 0.5
396 1 0.650033 0.852927 0.5
401 1 0.725298 0.80946 0.5
382 1 0.772876 0.808226 0.5
403 1 0.796939 0.854066 0.5
384 1 0.822379 0.808133 0.5
386 1 0.87061 0.805179 0.5
405 1 0.851527 0.854728 0.5
389 1 0.921562 0.805719 0.5
388 1 0.899114 0.851239 0.5
161 1 0.971071 0.804545 0.5
390 1 0.948184 0.855761 0.5
162 1 0.997081 0.854107 0.5
413 1 0.595732 0.857325 0.5
414 1 0.675327 0.905389 0.5
399 1 0.699118 0.857034 0.5
400 1 0.750358 0.857662 0.5
398 1 0.726629 0.908912 0.5
402 1 0.775824 0.903822 0.5
404 1 0.82596 0.901408 0.5
407 1 0.87697 0.90257 0.5
409 1 0.923692 0.903373 0.5
181 1 0.974795 0.902237 0.5
415 1 0.75329 0.954397 0.5
416 1 0.775349 1.00248 0.5
417 1 0.802911 0.950087 0.5
406 1 0.850881 0.948382 0.5
419 1 0.874267 0.994366 0.5
418 1 0.826185 0.998546 0.5
408 1 0.897941 0.950226 0.5
420 1 0.923686 0.999596 0.5
201 1 0.973208 1.0006 0.5
142 1 0.993391 0.758111 0.5
