ITEM: TIMESTEP
1500
ITEM: NUMBER OF ATOMS
420
ITEM: BOX BOUNDS pp ss pp
0.0000000000000000e+00 2.2653923264628304e+01
-1.9618873042551413e-03 1.9475836932380897e+01
-2.8317404080785380e-01 2.8317404080785380e-01
ITEM: ATOMS id type xs ys zs
1 2 0 0.000100724 0.5
2 2 0.025 0.0504629 0.5
3 2 0.05 0.000100724 0.5
4 2 0.075 0.0504629 0.5
5 2 0.1 0.000100724 0.5
6 2 0.125 0.0504629 0.5
7 2 0.15 0.000100724 0.5
8 2 0.175 0.0504629 0.5
9 2 0.2 0.000100724 0.5
10 2 0.225 0.0504629 0.5
11 2 0.25 0.000100724 0.5
12 2 0.275 0.0504629 0.5
13 2 0.3 0.000100724 0.5
14 2 0.325 0.0504629 0.5
15 2 0.35 0.000100724 0.5
16 2 0.375 0.0504629 0.5
17 2 0.4 0.000100724 0.5
18 2 0.425 0.0504629 0.5
19 2 0.45 0.000100724 0.5
20 2 0.475 0.0504629 0.5
21 2 0 0.100825 0.5
23 2 0.05 0.100825 0.5
22 1 0.0252739 0.149474 0.5
25 2 0.1 0.100825 0.5
24 1 0.0780211 0.150942 0.5
27 2 0.15 0.100825 0.5
26 1 0.125305 0.150445 0.5
28 1 0.172798 0.151754 0.5
29 2 0.2 0.100825 0.5
30 1 0.224267 0.153361 0.5
31 2 0.25 0.100825 0.5
33 2 0.3 0.100825 0.5
32 1 0.275733 0.150672 0.5
35 2 0.35 0.100825 0.5
34 1 0.325041 0.148436 0.5
36 1 0.375399 0.150622 0.5
37 2 0.4 0.100825 0.5
38 1 0.424069 0.151162 0.5
39 2 0.45 0.100825 0.5
40 1 0.47441 0.151871 0.5
43 1 0.0518616 0.197279 0.5
45 1 0.103333 0.20075 0.5
47 1 0.151559 0.204586 0.5
48 1 0.176821 0.253745 0.5
49 1 0.199916 0.202255 0.5
51 1 0.253431 0.199825 0.5
53 1 0.301854 0.199275 0.5
52 1 0.274796 0.249951 0.5
55 1 0.351206 0.200338 0.5
54 1 0.32489 0.249317 0.5
56 1 0.375488 0.250501 0.5
57 1 0.401502 0.200455 0.5
58 1 0.424621 0.251447 0.5
59 1 0.449039 0.200885 0.5
98 1 0.424193 0.44416 0.5
42 1 0.0260557 0.247993 0.5
63 1 0.0480471 0.297232 0.5
44 1 0.0763466 0.250601 0.5
46 1 0.127536 0.250123 0.5
65 1 0.101915 0.297946 0.5
67 1 0.150883 0.298778 0.5
50 1 0.226163 0.247707 0.5
69 1 0.202306 0.298228 0.5
71 1 0.25044 0.299872 0.5
73 1 0.3006 0.300983 0.5
75 1 0.350377 0.297299 0.5
77 1 0.400597 0.300971 0.5
60 1 0.473524 0.248172 0.5
96 1 0.374372 0.446837 0.5
79 1 0.449351 0.298311 0.5
62 1 0.0234257 0.346016 0.5
83 1 0.0497301 0.394246 0.5
64 1 0.0746309 0.345807 0.5
66 1 0.126721 0.348199 0.5
85 1 0.0982178 0.395912 0.5
68 1 0.174966 0.347786 0.5
87 1 0.150334 0.399331 0.5
70 1 0.223542 0.348886 0.5
89 1 0.200226 0.398916 0.5
91 1 0.248292 0.398937 0.5
72 1 0.273812 0.348642 0.5
93 1 0.298637 0.397566 0.5
74 1 0.323897 0.347924 0.5
76 1 0.375651 0.348334 0.5
95 1 0.347172 0.395662 0.5
78 1 0.423947 0.347725 0.5
97 1 0.396206 0.397657 0.5
80 1 0.476037 0.345708 0.5
99 1 0.449082 0.394652 0.5
103 1 0.0486156 0.492612 0.5
82 1 0.0261305 0.442183 0.5
100 1 0.474313 0.442018 0.5
84 1 0.0732033 0.443741 0.5
86 1 0.121918 0.444492 0.5
107 1 0.145623 0.495693 0.5
88 1 0.174793 0.44744 0.5
105 1 0.0960613 0.495676 0.5
90 1 0.224893 0.447827 0.5
109 1 0.200175 0.495382 0.5
92 1 0.274461 0.445213 0.5
111 1 0.249724 0.496966 0.5
113 1 0.297529 0.493312 0.5
94 1 0.323313 0.445955 0.5
115 1 0.348376 0.494316 0.5
117 1 0.399842 0.49334 0.5
119 1 0.448697 0.491768 0.5
251 1 0.499079 0.199853 0.5
81 1 2.11738e-05 0.395109 0.5
271 1 0.496234 0.296945 0.5
102 1 0.0219533 0.542722 0.5
104 1 0.0741711 0.542575 0.5
106 1 0.12218 0.543234 0.5
108 1 0.172256 0.540613 0.5
110 1 0.22445 0.544784 0.5
112 1 0.275572 0.545507 0.5
114 1 0.322875 0.543362 0.5
116 1 0.374001 0.543139 0.5
118 1 0.424132 0.542886 0.5
120 1 0.473267 0.542782 0.5
123 1 0.0494326 0.591217 0.5
122 1 0.0222633 0.642462 0.5
200 1 0.473272 0.947302 0.5
125 1 0.100392 0.593228 0.5
124 1 0.0721179 0.641974 0.5
127 1 0.147872 0.593642 0.5
126 1 0.122888 0.643538 0.5
128 1 0.174079 0.644566 0.5
129 1 0.194428 0.59163 0.5
130 1 0.222979 0.64321 0.5
131 1 0.247982 0.594882 0.5
133 1 0.298801 0.59441 0.5
132 1 0.277023 0.643729 0.5
135 1 0.349176 0.592003 0.5
134 1 0.325392 0.641772 0.5
136 1 0.375344 0.642108 0.5
137 1 0.398953 0.591405 0.5
138 1 0.422751 0.643015 0.5
196 1 0.371851 0.945188 0.5
139 1 0.450506 0.589786 0.5
140 1 0.472758 0.639892 0.5
143 1 0.0456376 0.688848 0.5
142 1 0.0224662 0.740972 0.5
145 1 0.0954306 0.692823 0.5
144 1 0.0720328 0.743414 0.5
146 1 0.121537 0.738849 0.5
147 1 0.148077 0.691797 0.5
148 1 0.170706 0.741528 0.5
149 1 0.197865 0.693522 0.5
150 1 0.224465 0.742854 0.5
151 1 0.246334 0.691681 0.5
153 1 0.298631 0.69286 0.5
152 1 0.272823 0.743939 0.5
155 1 0.349489 0.691095 0.5
154 1 0.323563 0.740512 0.5
157 1 0.396788 0.693458 0.5
156 1 0.37321 0.743164 0.5
158 1 0.422523 0.741459 0.5
198 1 0.422287 0.9438 0.5
159 1 0.450715 0.689007 0.5
160 1 0.470074 0.743353 0.5
163 1 0.0474586 0.792806 0.5
165 1 0.0995637 0.792308 0.5
167 1 0.150754 0.791516 0.5
169 1 0.199064 0.793682 0.5
171 1 0.247581 0.790755 0.5
173 1 0.299585 0.794467 0.5
175 1 0.351362 0.792376 0.5
177 1 0.398963 0.793062 0.5
179 1 0.448496 0.791766 0.5
209 1 0.396499 0.993902 0.5
162 1 0.0272468 0.845094 0.5
183 1 0.0514388 0.893447 0.5
164 1 0.0736531 0.842565 0.5
166 1 0.123062 0.841317 0.5
185 1 0.0991516 0.895424 0.5
168 1 0.173017 0.842884 0.5
187 1 0.147396 0.893938 0.5
170 1 0.222177 0.844439 0.5
189 1 0.196875 0.89328 0.5
191 1 0.246054 0.892891 0.5
172 1 0.273808 0.844572 0.5
193 1 0.300025 0.894096 0.5
174 1 0.325349 0.841189 0.5
195 1 0.351901 0.89295 0.5
176 1 0.375612 0.843515 0.5
178 1 0.424785 0.841791 0.5
197 1 0.401084 0.894101 0.5
180 1 0.474455 0.841874 0.5
199 1 0.448659 0.894807 0.5
210 1 0.448057 0.995836 0.5
182 1 0.0272336 0.940697 0.5
202 1 0.0504 0.997128 0.5
184 1 0.0735341 0.949467 0.5
203 1 0.101161 0.995623 0.5
186 1 0.126403 0.944439 0.5
204 1 0.151023 0.995101 0.5
188 1 0.176305 0.946957 0.5
190 1 0.225189 0.945437 0.5
206 1 0.251897 0.994794 0.5
205 1 0.200358 0.995639 0.5
192 1 0.275099 0.944096 0.5
207 1 0.299871 0.99316 0.5
194 1 0.322403 0.945361 0.5
208 1 0.348059 0.99432 0.5
201 1 0.00124772 0.990326 0.5
181 1 0.00024498 0.893821 0.5
331 1 0.499584 0.59271 0.5
411 1 0.497271 0.999127 0.5
351 1 0.498782 0.690092 0.5
371 1 0.496339 0.789338 0.5
211 2 0.5 0.000100724 0.5
212 2 0.525 0.0504629 0.5
213 2 0.55 0.000100724 0.5
214 2 0.575 0.0504629 0.5
215 2 0.6 0.000100724 0.5
216 2 0.625 0.0504629 0.5
217 2 0.65 0.000100724 0.5
218 2 0.675 0.0504629 0.5
219 2 0.7 0.000100724 0.5
220 2 0.725 0.0504629 0.5
221 2 0.75 0.000100724 0.5
222 2 0.775 0.0504629 0.5
223 2 0.8 0.000100724 0.5
224 2 0.825 0.0504629 0.5
225 2 0.85 0.000100724 0.5
226 2 0.875 0.0504629 0.5
227 2 0.9 0.000100724 0.5
228 2 0.925 0.0504629 0.5
229 2 0.95 0.000100724 0.5
230 2 0.975 0.0504629 0.5
231 2 0.5 0.100825 0.5
233 2 0.55 0.100825 0.5
232 1 0.524114 0.15032 0.5
235 2 0.6 0.100825 0.5
234 1 0.576167 0.14944 0.5
237 2 0.65 0.100825 0.5
236 1 0.624742 0.149836 0.5
238 1 0.673753 0.149946 0.5
239 2 0.7 0.100825 0.5
240 1 0.72511 0.152968 0.5
241 2 0.75 0.100825 0.5
243 2 0.8 0.100825 0.5
242 1 0.773072 0.14931 0.5
245 2 0.85 0.100825 0.5
244 1 0.823053 0.148038 0.5
247 2 0.9 0.100825 0.5
246 1 0.874882 0.150428 0.5
248 1 0.923516 0.149229 0.5
249 2 0.95 0.100825 0.5
250 1 0.975256 0.148202 0.5
253 1 0.550184 0.197774 0.5
252 1 0.522766 0.247216 0.5
255 1 0.600579 0.198207 0.5
254 1 0.571992 0.249946 0.5
257 1 0.649653 0.199975 0.5
258 1 0.675063 0.249077 0.5
259 1 0.699311 0.200091 0.5
261 1 0.750381 0.201117 0.5
263 1 0.79911 0.197426 0.5
265 1 0.847895 0.197727 0.5
267 1 0.897169 0.197734 0.5
269 1 0.947313 0.196049 0.5
323 1 0.799982 0.49576 0.5
273 1 0.549727 0.300294 0.5
256 1 0.620693 0.249711 0.5
275 1 0.599716 0.298331 0.5
277 1 0.649938 0.297402 0.5
260 1 0.725254 0.246801 0.5
279 1 0.700337 0.297867 0.5
281 1 0.748324 0.297833 0.5
262 1 0.77163 0.249348 0.5
283 1 0.799997 0.297013 0.5
264 1 0.824845 0.24968 0.5
266 1 0.873767 0.24749 0.5
285 1 0.849533 0.296575 0.5
268 1 0.923333 0.246386 0.5
287 1 0.8987 0.295549 0.5
270 1 0.974635 0.246939 0.5
289 1 0.947465 0.294543 0.5
101 1 0.998886 0.495243 0.5
272 1 0.524679 0.346258 0.5
293 1 0.550846 0.395664 0.5
274 1 0.574492 0.346379 0.5
276 1 0.624127 0.347719 0.5
295 1 0.598279 0.398953 0.5
278 1 0.677401 0.34832 0.5
297 1 0.652212 0.39607 0.5
280 1 0.726651 0.347837 0.5
299 1 0.701858 0.398437 0.5
301 1 0.749057 0.396198 0.5
282 1 0.77589 0.346718 0.5
303 1 0.800115 0.394566 0.5
284 1 0.823199 0.344861 0.5
286 1 0.876103 0.344085 0.5
305 1 0.851258 0.392758 0.5
288 1 0.926082 0.346035 0.5
307 1 0.902451 0.394352 0.5
290 1 0.975849 0.346636 0.5
309 1 0.951853 0.393845 0.5
311 1 0.497699 0.492818 0.5
292 1 0.526863 0.446224 0.5
306 1 0.87659 0.444153 0.5
310 1 0.974895 0.443505 0.5
294 1 0.574899 0.447056 0.5
296 1 0.626782 0.444653 0.5
319 1 0.699828 0.495046 0.5
298 1 0.675487 0.445087 0.5
317 1 0.649217 0.492984 0.5
300 1 0.724352 0.446396 0.5
308 1 0.924136 0.448116 0.5
327 1 0.899231 0.495042 0.5
302 1 0.775633 0.445812 0.5
304 1 0.825234 0.442455 0.5
325 1 0.84939 0.491577 0.5
315 1 0.599645 0.498337 0.5
329 1 0.950258 0.492987 0.5
321 1 0.749673 0.494841 0.5
313 1 0.551842 0.494419 0.5
291 1 0.502446 0.395144 0.5
61 1 0.998015 0.294825 0.5
41 1 0.999453 0.197315 0.5
312 1 0.522126 0.542887 0.5
314 1 0.572073 0.545422 0.5
316 1 0.626401 0.543669 0.5
318 1 0.672912 0.544649 0.5
320 1 0.72614 0.544659 0.5
121 1 0.997534 0.59106 0.5
322 1 0.772557 0.542755 0.5
324 1 0.826199 0.544089 0.5
326 1 0.876087 0.543851 0.5
328 1 0.92536 0.544004 0.5
330 1 0.972689 0.540944 0.5
333 1 0.549384 0.592622 0.5
332 1 0.523345 0.640862 0.5
335 1 0.599576 0.592226 0.5
334 1 0.575566 0.645838 0.5
336 1 0.622826 0.644851 0.5
337 1 0.651129 0.595358 0.5
338 1 0.673964 0.643521 0.5
339 1 0.700543 0.591257 0.5
341 1 0.749893 0.594 0.5
340 1 0.722827 0.643671 0.5
343 1 0.799895 0.589799 0.5
342 1 0.772782 0.642317 0.5
345 1 0.850872 0.593791 0.5
344 1 0.821473 0.641086 0.5
346 1 0.873439 0.643626 0.5
347 1 0.900864 0.592384 0.5
348 1 0.921863 0.642643 0.5
349 1 0.948795 0.589656 0.5
350 1 0.971485 0.638731 0.5
353 1 0.547255 0.692746 0.5
352 1 0.518968 0.741046 0.5
355 1 0.600109 0.694391 0.5
354 1 0.572203 0.74114 0.5
356 1 0.626126 0.740442 0.5
357 1 0.650873 0.692782 0.5
358 1 0.675975 0.743264 0.5
359 1 0.700938 0.695541 0.5
361 1 0.750843 0.696512 0.5
360 1 0.725254 0.745981 0.5
363 1 0.799036 0.691675 0.5
362 1 0.776131 0.746045 0.5
365 1 0.848155 0.692286 0.5
364 1 0.8234 0.7426 0.5
367 1 0.897972 0.69185 0.5
366 1 0.873433 0.743016 0.5
368 1 0.923224 0.740052 0.5
369 1 0.947017 0.690567 0.5
370 1 0.972389 0.73919 0.5
420 1 0.951823 0.999279 0.5
373 1 0.545073 0.790589 0.5
375 1 0.598803 0.788798 0.5
377 1 0.64981 0.792668 0.5
379 1 0.697662 0.796169 0.5
381 1 0.750163 0.795778 0.5
383 1 0.798624 0.794871 0.5
385 1 0.849029 0.791319 0.5
387 1 0.898882 0.792766 0.5
389 1 0.948851 0.79059 0.5
410 1 0.979035 0.94072 0.5
372 1 0.521908 0.840199 0.5
393 1 0.548269 0.891519 0.5
374 1 0.571273 0.839214 0.5
395 1 0.597963 0.894801 0.5
376 1 0.621393 0.840236 0.5
378 1 0.673429 0.847043 0.5
397 1 0.645432 0.893785 0.5
380 1 0.724255 0.847651 0.5
399 1 0.698605 0.894408 0.5
401 1 0.749378 0.899657 0.5
382 1 0.773614 0.846306 0.5
403 1 0.799216 0.897508 0.5
384 1 0.823491 0.845437 0.5
386 1 0.873017 0.842154 0.5
405 1 0.853204 0.893801 0.5
388 1 0.925 0.843833 0.5
407 1 0.90107 0.891606 0.5
390 1 0.974726 0.843047 0.5
409 1 0.948837 0.894622 0.5
141 1 0.995963 0.689563 0.5
392 1 0.523985 0.945099 0.5
412 1 0.544767 0.995501 0.5
161 1 0.997619 0.790192 0.5
396 1 0.62039 0.944777 0.5
394 1 0.570991 0.942366 0.5
413 1 0.593191 0.993164 0.5
398 1 0.670256 0.943612 0.5
414 1 0.647828 0.99267 0.5
415 1 0.698136 0.997454 0.5
416 1 0.753798 1.00092 0.5
400 1 0.722098 0.947224 0.5
402 1 0.775775 0.948265 0.5
417 1 0.805496 0.990064 0.5
418 1 0.854482 0.99363 0.5
404 1 0.833116 0.943875 0.5
408 1 0.929198 0.9471 0.5
406 1 0.881959 0.941716 0.5
419 1 0.903864 0.993121 0.5
391 1 0.500737 0.891654 0.5
