ITEM: TIMESTEP
52750
ITEM: NUMBER OF ATOMS
420
ITEM: BOX BOUNDS pp ss pp
0.0000000000000000e+00 2.2653923264628304e+01
-1.9618873042551413e-03 2.0514148433248334e+01
-2.8317404080785380e-01 2.8317404080785380e-01
ITEM: ATOMS id type xs ys zs
1 2 0 9.56267e-05 0.5
2 2 0.025 0.047909 0.5
3 2 0.05 9.56267e-05 0.5
4 2 0.075 0.047909 0.5
5 2 0.1 9.56267e-05 0.5
6 2 0.125 0.047909 0.5
7 2 0.15 9.56267e-05 0.5
8 2 0.175 0.047909 0.5
9 2 0.2 9.56267e-05 0.5
10 2 0.225 0.047909 0.5
11 2 0.25 9.56267e-05 0.5
12 2 0.275 0.047909 0.5
13 2 0.3 9.56267e-05 0.5
14 2 0.325 0.047909 0.5
15 2 0.35 9.56267e-05 0.5
16 2 0.375 0.047909 0.5
17 2 0.4 9.56267e-05 0.5
18 2 0.425 0.047909 0.5
19 2 0.45 9.56267e-05 0.5
20 2 0.475 0.047909 0.5
21 2 0 0.0957223 0.5
23 2 0.05 0.0957223 0.5
22 1 0.0251865 0.141832 0.5
25 2 0.1 0.0957223 0.5
24 1 0.0739683 0.144166 0.5
27 2 0.15 0.0957223 0.5
26 1 0.124849 0.140993 0.5
28 1 0.176163 0.142533 0.5
29 2 0.2 0.0957223 0.5
31 2 0.25 0.0957223 0.5
33 2 0.3 0.0957223 0.5
35 2 0.35 0.0957223 0.5
36 1 0.374318 0.14266 0.5
37 2 0.4 0.0957223 0.5
39 2 0.45 0.0957223 0.5
40 1 0.47236 0.144206 0.5
43 1 0.0505811 0.191402 0.5
117 1 0.397233 0.472621 0.5
45 1 0.102017 0.190248 0.5
47 1 0.152049 0.189064 0.5
30 1 0.227178 0.141791 0.5
49 1 0.202874 0.188912 0.5
51 1 0.251169 0.190429 0.5
32 1 0.276605 0.141582 0.5
53 1 0.29845 0.189516 0.5
34 1 0.32744 0.141337 0.5
55 1 0.351086 0.187797 0.5
38 1 0.424949 0.141477 0.5
57 1 0.399348 0.189338 0.5
59 1 0.449693 0.189128 0.5
42 1 0.0257267 0.236123 0.5
63 1 0.0516741 0.282807 0.5
115 1 0.348372 0.474519 0.5
44 1 0.0760427 0.238693 0.5
65 1 0.102432 0.286073 0.5
46 1 0.12805 0.239058 0.5
48 1 0.17755 0.236015 0.5
67 1 0.15077 0.286189 0.5
50 1 0.224738 0.2386 0.5
71 1 0.249495 0.28342 0.5
52 1 0.274074 0.236707 0.5
73 1 0.298967 0.283473 0.5
54 1 0.325007 0.236377 0.5
75 1 0.34827 0.284762 0.5
56 1 0.376242 0.236013 0.5
58 1 0.427413 0.236458 0.5
77 1 0.396503 0.284229 0.5
60 1 0.474694 0.239001 0.5
79 1 0.446842 0.284123 0.5
62 1 0.0253258 0.331549 0.5
64 1 0.0758487 0.330368 0.5
66 1 0.125482 0.335636 0.5
68 1 0.177254 0.33334 0.5
69 1 0.20007 0.286223 0.5
70 1 0.224696 0.330743 0.5
72 1 0.276285 0.33206 0.5
74 1 0.32404 0.32981 0.5
76 1 0.372787 0.332843 0.5
78 1 0.422654 0.330214 0.5
80 1 0.470761 0.333685 0.5
83 1 0.0515408 0.376984 0.5
82 1 0.0297478 0.425537 0.5
119 1 0.446251 0.476237 0.5
85 1 0.0997512 0.380612 0.5
84 1 0.0782752 0.427506 0.5
87 1 0.148914 0.381007 0.5
86 1 0.12503 0.428805 0.5
88 1 0.178873 0.424428 0.5
89 1 0.202709 0.376975 0.5
90 1 0.224772 0.426035 0.5
91 1 0.25004 0.379987 0.5
93 1 0.298525 0.379001 0.5
92 1 0.273654 0.427033 0.5
95 1 0.348783 0.380908 0.5
94 1 0.321679 0.427829 0.5
98 1 0.42159 0.427156 0.5
97 1 0.398141 0.379151 0.5
96 1 0.375171 0.427693 0.5
100 1 0.470186 0.428458 0.5
99 1 0.445531 0.381174 0.5
103 1 0.0507594 0.472784 0.5
311 1 0.497003 0.47412 0.5
107 1 0.101988 0.473951 0.5
109 1 0.150262 0.472444 0.5
111 1 0.200502 0.474434 0.5
112 1 0.248592 0.474502 0.5
113 1 0.29867 0.476943 0.5
61 1 0.00401655 0.285418 0.5
291 1 0.494289 0.380045 0.5
271 1 0.497841 0.287258 0.5
251 1 0.499625 0.191306 0.5
101 1 0.00139382 0.473451 0.5
41 1 0.00290393 0.190343 0.5
102 1 0.024264 0.520456 0.5
104 1 0.0505585 0.566989 0.5
105 1 0.072165 0.519065 0.5
106 1 0.100554 0.568416 0.5
108 1 0.127396 0.521091 0.5
110 1 0.174897 0.52196 0.5
129 1 0.152346 0.568957 0.5
133 1 0.224338 0.520937 0.5
131 1 0.19901 0.566736 0.5
135 1 0.27482 0.522937 0.5
134 1 0.248803 0.567568 0.5
136 1 0.299038 0.569421 0.5
114 1 0.32295 0.522485 0.5
116 1 0.369592 0.519525 0.5
137 1 0.34764 0.568912 0.5
118 1 0.421212 0.520318 0.5
139 1 0.397777 0.567776 0.5
120 1 0.47199 0.520793 0.5
208 1 0.321191 0.994659 0.5
123 1 0.0251183 0.615221 0.5
194 1 0.297708 0.948702 0.5
125 1 0.0751658 0.614801 0.5
127 1 0.126098 0.616058 0.5
130 1 0.177198 0.616456 0.5
132 1 0.227065 0.617098 0.5
155 1 0.275674 0.616018 0.5
157 1 0.322971 0.615627 0.5
138 1 0.374073 0.616583 0.5
140 1 0.422362 0.61549 0.5
331 1 0.446373 0.565988 0.5
332 1 0.472905 0.613422 0.5
124 1 0.0505036 0.663662 0.5
143 1 0.025159 0.71201 0.5
206 1 0.219408 0.994363 0.5
126 1 0.0977238 0.661942 0.5
145 1 0.0753496 0.708393 0.5
147 1 0.12494 0.706894 0.5
128 1 0.150772 0.660892 0.5
149 1 0.174497 0.709112 0.5
151 1 0.199019 0.662195 0.5
152 1 0.221507 0.711359 0.5
153 1 0.248519 0.664091 0.5
156 1 0.296523 0.663252 0.5
154 1 0.274126 0.711087 0.5
158 1 0.345906 0.662694 0.5
179 1 0.372888 0.711525 0.5
159 1 0.398885 0.662206 0.5
160 1 0.422494 0.709835 0.5
351 1 0.445302 0.662893 0.5
352 1 0.473011 0.711029 0.5
144 1 0.048396 0.760391 0.5
207 1 0.271984 0.996807 0.5
146 1 0.0988495 0.757397 0.5
148 1 0.145951 0.755123 0.5
150 1 0.198058 0.755236 0.5
173 1 0.248543 0.758295 0.5
175 1 0.299028 0.754212 0.5
177 1 0.326239 0.709818 0.5
178 1 0.347619 0.760494 0.5
180 1 0.397627 0.756536 0.5
371 1 0.447056 0.756061 0.5
209 1 0.349224 0.947597 0.5
163 1 0.0235952 0.805979 0.5
164 1 0.0476647 0.851466 0.5
192 1 0.245142 0.947189 0.5
165 1 0.0720957 0.805346 0.5
166 1 0.10084 0.852873 0.5
167 1 0.122198 0.804302 0.5
169 1 0.171877 0.802739 0.5
168 1 0.147727 0.848414 0.5
171 1 0.222182 0.803061 0.5
170 1 0.198004 0.848832 0.5
174 1 0.273031 0.803965 0.5
195 1 0.297163 0.849348 0.5
172 1 0.248957 0.850592 0.5
176 1 0.321478 0.804838 0.5
197 1 0.34586 0.851285 0.5
199 1 0.372595 0.806053 0.5
391 1 0.421075 0.802202 0.5
210 1 0.397774 0.852412 0.5
411 1 0.471622 0.801786 0.5
200 1 0.448821 0.848061 0.5
183 1 0.0238794 0.898828 0.5
185 1 0.0718507 0.899364 0.5
187 1 0.122704 0.899144 0.5
189 1 0.1736 0.895067 0.5
191 1 0.221994 0.898071 0.5
193 1 0.272118 0.899469 0.5
196 1 0.322129 0.901078 0.5
198 1 0.36958 0.898395 0.5
184 1 0.0460909 0.944624 0.5
202 1 0.0269995 0.994165 0.5
190 1 0.196991 0.945162 0.5
203 1 0.0747517 0.993497 0.5
186 1 0.0964511 0.947674 0.5
204 1 0.12263 0.992269 0.5
188 1 0.147368 0.946024 0.5
205 1 0.171449 0.99417 0.5
333 1 0.496418 0.566343 0.5
372 1 0.497793 0.757662 0.5
353 1 0.497393 0.661727 0.5
122 1 0.000897664 0.663225 0.5
142 1 0.00130938 0.759229 0.5
392 1 0.495899 0.850426 0.5
121 1 0.000882893 0.568731 0.5
211 2 0.5 9.56267e-05 0.5
212 2 0.525 0.047909 0.5
213 2 0.55 9.56267e-05 0.5
214 2 0.575 0.047909 0.5
215 2 0.6 9.56267e-05 0.5
216 2 0.625 0.047909 0.5
217 2 0.65 9.56267e-05 0.5
218 2 0.675 0.047909 0.5
219 2 0.7 9.56267e-05 0.5
220 2 0.725 0.047909 0.5
221 2 0.75 9.56267e-05 0.5
222 2 0.775 0.047909 0.5
223 2 0.8 9.56267e-05 0.5
224 2 0.825 0.047909 0.5
225 2 0.85 9.56267e-05 0.5
226 2 0.875 0.047909 0.5
227 2 0.9 9.56267e-05 0.5
228 2 0.925 0.047909 0.5
229 2 0.95 9.56267e-05 0.5
230 2 0.975 0.047909 0.5
231 2 0.5 0.0957223 0.5
233 2 0.55 0.0957223 0.5
232 1 0.525031 0.147076 0.5
235 2 0.6 0.0957223 0.5
237 2 0.65 0.0957223 0.5
239 2 0.7 0.0957223 0.5
241 2 0.75 0.0957223 0.5
243 2 0.8 0.0957223 0.5
245 2 0.85 0.0957223 0.5
244 1 0.824804 0.141887 0.5
247 2 0.9 0.0957223 0.5
248 1 0.926482 0.14298 0.5
246 1 0.876084 0.141684 0.5
249 2 0.95 0.0957223 0.5
250 1 0.976319 0.14116 0.5
253 1 0.552396 0.192479 0.5
329 1 0.952478 0.472823 0.5
234 1 0.574134 0.140976 0.5
255 1 0.602092 0.190183 0.5
236 1 0.625299 0.141601 0.5
238 1 0.675137 0.142304 0.5
257 1 0.649178 0.19199 0.5
240 1 0.723527 0.143414 0.5
259 1 0.698902 0.191356 0.5
242 1 0.772541 0.1422 0.5
261 1 0.749561 0.190834 0.5
263 1 0.80277 0.189605 0.5
265 1 0.850896 0.186333 0.5
267 1 0.901465 0.189428 0.5
269 1 0.951619 0.189381 0.5
252 1 0.524626 0.237229 0.5
273 1 0.547378 0.285823 0.5
327 1 0.89991 0.473916 0.5
254 1 0.576932 0.237944 0.5
275 1 0.599694 0.286656 0.5
256 1 0.625427 0.240591 0.5
258 1 0.673481 0.238017 0.5
260 1 0.720982 0.23877 0.5
262 1 0.778674 0.234399 0.5
264 1 0.827052 0.234678 0.5
285 1 0.850132 0.281323 0.5
266 1 0.876448 0.234896 0.5
268 1 0.927007 0.238025 0.5
287 1 0.899236 0.280963 0.5
270 1 0.978854 0.23692 0.5
289 1 0.951253 0.283278 0.5
272 1 0.522006 0.333401 0.5
274 1 0.571866 0.332235 0.5
276 1 0.623721 0.333505 0.5
277 1 0.650572 0.288157 0.5
278 1 0.675779 0.333899 0.5
279 1 0.698605 0.286425 0.5
280 1 0.725704 0.331343 0.5
283 1 0.800292 0.282209 0.5
281 1 0.752076 0.282436 0.5
282 1 0.774142 0.330043 0.5
284 1 0.82059 0.331905 0.5
286 1 0.874694 0.328478 0.5
288 1 0.922699 0.328619 0.5
290 1 0.974729 0.329272 0.5
293 1 0.547415 0.380264 0.5
81 1 0.998255 0.378888 0.5
295 1 0.599722 0.379955 0.5
296 1 0.625282 0.425494 0.5
297 1 0.649439 0.379273 0.5
298 1 0.671555 0.426654 0.5
299 1 0.702357 0.380905 0.5
300 1 0.727438 0.424614 0.5
301 1 0.750831 0.377847 0.5
303 1 0.797821 0.379057 0.5
302 1 0.774501 0.426968 0.5
305 1 0.849042 0.37753 0.5
308 1 0.924778 0.427021 0.5
307 1 0.899207 0.378799 0.5
306 1 0.871372 0.425719 0.5
310 1 0.976358 0.42734 0.5
309 1 0.949563 0.37896 0.5
292 1 0.518438 0.425571 0.5
313 1 0.546628 0.473812 0.5
294 1 0.573639 0.424363 0.5
315 1 0.597716 0.472468 0.5
317 1 0.648164 0.473657 0.5
319 1 0.698495 0.47104 0.5
323 1 0.799292 0.476502 0.5
321 1 0.748831 0.472226 0.5
304 1 0.822932 0.425059 0.5
325 1 0.85071 0.474974 0.5
312 1 0.519406 0.520239 0.5
335 1 0.548434 0.566427 0.5
314 1 0.57245 0.519294 0.5
336 1 0.596809 0.566098 0.5
316 1 0.622044 0.520458 0.5
318 1 0.671523 0.521711 0.5
337 1 0.64628 0.566626 0.5
320 1 0.723802 0.520745 0.5
339 1 0.69424 0.568985 0.5
322 1 0.772711 0.521101 0.5
343 1 0.800614 0.565456 0.5
324 1 0.825487 0.523339 0.5
345 1 0.851645 0.56707 0.5
326 1 0.876933 0.52062 0.5
328 1 0.928536 0.518847 0.5
347 1 0.902011 0.565407 0.5
330 1 0.977544 0.52141 0.5
349 1 0.949418 0.570017 0.5
334 1 0.523686 0.612309 0.5
355 1 0.572728 0.61384 0.5
357 1 0.621287 0.615156 0.5
338 1 0.669684 0.613516 0.5
340 1 0.722134 0.614679 0.5
341 1 0.748667 0.567419 0.5
342 1 0.775531 0.618155 0.5
344 1 0.823735 0.612327 0.5
346 1 0.87653 0.614034 0.5
348 1 0.924621 0.614933 0.5
350 1 0.975446 0.615704 0.5
354 1 0.547609 0.660086 0.5
373 1 0.52232 0.7106 0.5
201 1 0.975306 0.995016 0.5
356 1 0.597982 0.661164 0.5
375 1 0.569982 0.708349 0.5
358 1 0.647614 0.661073 0.5
379 1 0.672807 0.708019 0.5
377 1 0.620417 0.710138 0.5
359 1 0.697828 0.661435 0.5
360 1 0.723538 0.709973 0.5
361 1 0.74614 0.662396 0.5
363 1 0.801174 0.662181 0.5
362 1 0.77163 0.705899 0.5
365 1 0.848727 0.656869 0.5
364 1 0.822708 0.708287 0.5
367 1 0.898471 0.660362 0.5
366 1 0.872008 0.707467 0.5
368 1 0.923284 0.705213 0.5
369 1 0.949566 0.659073 0.5
141 1 0.974431 0.709487 0.5
374 1 0.547659 0.757669 0.5
376 1 0.595156 0.756497 0.5
378 1 0.646482 0.758355 0.5
380 1 0.698141 0.758651 0.5
381 1 0.750669 0.751691 0.5
383 1 0.799496 0.756853 0.5
385 1 0.848949 0.755129 0.5
387 1 0.899204 0.750601 0.5
370 1 0.947269 0.755927 0.5
393 1 0.521205 0.80426 0.5
412 1 0.546677 0.85278 0.5
410 1 0.948351 0.94489 0.5
394 1 0.572284 0.80815 0.5
413 1 0.595248 0.853652 0.5
395 1 0.622029 0.803978 0.5
397 1 0.671929 0.803715 0.5
401 1 0.726212 0.804663 0.5
399 1 0.695607 0.847785 0.5
382 1 0.775951 0.803811 0.5
400 1 0.750777 0.851896 0.5
384 1 0.824588 0.805002 0.5
405 1 0.851765 0.851833 0.5
386 1 0.872806 0.800933 0.5
389 1 0.921439 0.801826 0.5
388 1 0.899179 0.851296 0.5
161 1 0.970932 0.803403 0.5
390 1 0.946891 0.848288 0.5
396 1 0.64314 0.852466 0.5
414 1 0.673478 0.895643 0.5
398 1 0.722566 0.896343 0.5
403 1 0.800291 0.852884 0.5
402 1 0.774118 0.900765 0.5
404 1 0.822456 0.901625 0.5
407 1 0.873423 0.898218 0.5
409 1 0.923557 0.898132 0.5
181 1 0.972268 0.897423 0.5
415 1 0.750913 0.947163 0.5
417 1 0.801434 0.948758 0.5
416 1 0.773883 0.999815 0.5
406 1 0.850573 0.944455 0.5
418 1 0.827488 0.998444 0.5
408 1 0.900143 0.946852 0.5
419 1 0.876475 0.990537 0.5
420 1 0.926369 0.993822 0.5
182 1 0.998159 0.946378 0.5
162 1 0.997194 0.853315 0.5
