ITEM: TIMESTEP
18000
ITEM: NUMBER OF ATOMS
420
ITEM: BOX BOUNDS pp ss pp
0.0000000000000000e+00 2.2653923264628304e+01
-1.9618873042551413e-03 1.9749399038213795e+01
-2.8317404080785380e-01 2.8317404080785380e-01
ITEM: ATOMS id type xs ys zs
1 2 0 9.93292e-05 0.5
2 2 0.025 0.0497639 0.5
3 2 0.05 9.93292e-05 0.5
4 2 0.075 0.0497639 0.5
5 2 0.1 9.93292e-05 0.5
6 2 0.125 0.0497639 0.5
7 2 0.15 9.93292e-05 0.5
8 2 0.175 0.0497639 0.5
9 2 0.2 9.93292e-05 0.5
10 2 0.225 0.0497639 0.5
11 2 0.25 9.93292e-05 0.5
12 2 0.275 0.0497639 0.5
13 2 0.3 9.93292e-05 0.5
14 2 0.325 0.0497639 0.5
15 2 0.35 9.93292e-05 0.5
16 2 0.375 0.0497639 0.5
17 2 0.4 9.93292e-05 0.5
18 2 0.425 0.0497639 0.5
19 2 0.45 9.93292e-05 0.5
20 2 0.475 0.0497639 0.5
21 2 0 0.0994286 0.5
23 2 0.05 0.0994286 0.5
22 1 0.0289921 0.14494 0.5
25 2 0.1 0.0994286 0.5
24 1 0.076363 0.14514 0.5
26 1 0.125738 0.143712 0.5
27 2 0.15 0.0994286 0.5
28 1 0.17231 0.149223 0.5
29 2 0.2 0.0994286 0.5
30 1 0.227618 0.145634 0.5
31 2 0.25 0.0994286 0.5
33 2 0.3 0.0994286 0.5
32 1 0.27634 0.147374 0.5
35 2 0.35 0.0994286 0.5
34 1 0.322967 0.148245 0.5
36 1 0.378405 0.148708 0.5
37 2 0.4 0.0994286 0.5
38 1 0.427556 0.149026 0.5
39 2 0.45 0.0994286 0.5
40 1 0.477412 0.147293 0.5
43 1 0.0524308 0.192669 0.5
42 1 0.0269149 0.239924 0.5
45 1 0.102165 0.192825 0.5
44 1 0.076334 0.241148 0.5
46 1 0.124473 0.242286 0.5
47 1 0.149486 0.196229 0.5
48 1 0.17424 0.242883 0.5
49 1 0.199633 0.193122 0.5
51 1 0.251821 0.193524 0.5
50 1 0.222535 0.24142 0.5
53 1 0.299903 0.195885 0.5
52 1 0.273765 0.243589 0.5
55 1 0.348635 0.19497 0.5
54 1 0.325368 0.242579 0.5
56 1 0.373952 0.242813 0.5
57 1 0.403097 0.197088 0.5
58 1 0.425026 0.246554 0.5
59 1 0.451845 0.199216 0.5
60 1 0.473492 0.248328 0.5
81 1 0.00224477 0.387245 0.5
63 1 0.0494743 0.287848 0.5
100 1 0.468011 0.437856 0.5
65 1 0.100075 0.290076 0.5
67 1 0.145496 0.29296 0.5
69 1 0.197202 0.290599 0.5
71 1 0.246973 0.2895 0.5
73 1 0.295075 0.291448 0.5
75 1 0.347975 0.290725 0.5
77 1 0.39667 0.292033 0.5
79 1 0.449541 0.295696 0.5
101 1 0.00304142 0.486302 0.5
62 1 0.0251649 0.338423 0.5
83 1 0.0507118 0.386441 0.5
311 1 0.48968 0.485008 0.5
64 1 0.074322 0.335431 0.5
66 1 0.121367 0.340484 0.5
85 1 0.0978219 0.387982 0.5
68 1 0.1716 0.338601 0.5
87 1 0.147443 0.386543 0.5
70 1 0.220492 0.336586 0.5
89 1 0.197047 0.386286 0.5
91 1 0.244002 0.383959 0.5
72 1 0.269548 0.338522 0.5
93 1 0.295329 0.385575 0.5
74 1 0.321047 0.337366 0.5
76 1 0.370518 0.338955 0.5
95 1 0.34339 0.386035 0.5
78 1 0.421338 0.341023 0.5
97 1 0.394017 0.387151 0.5
99 1 0.444624 0.38823 0.5
80 1 0.474074 0.342447 0.5
291 1 0.49409 0.390827 0.5
103 1 0.0500156 0.484011 0.5
82 1 0.0255264 0.436589 0.5
105 1 0.0982194 0.481992 0.5
84 1 0.0727162 0.435357 0.5
86 1 0.12169 0.433324 0.5
88 1 0.171203 0.432698 0.5
107 1 0.146616 0.481921 0.5
111 1 0.24495 0.479991 0.5
90 1 0.222261 0.433549 0.5
109 1 0.195469 0.480666 0.5
113 1 0.293651 0.480511 0.5
92 1 0.268582 0.432649 0.5
94 1 0.31847 0.432413 0.5
96 1 0.370504 0.434616 0.5
115 1 0.342007 0.481227 0.5
117 1 0.391481 0.483088 0.5
98 1 0.421354 0.436677 0.5
119 1 0.442483 0.485024 0.5
61 1 0.00185375 0.290402 0.5
271 1 0.499329 0.294976 0.5
41 1 0.00254184 0.192007 0.5
102 1 0.0245333 0.532745 0.5
104 1 0.0753832 0.532213 0.5
106 1 0.123609 0.530558 0.5
108 1 0.170169 0.52766 0.5
110 1 0.219813 0.526195 0.5
112 1 0.267285 0.528329 0.5
114 1 0.318884 0.527521 0.5
116 1 0.364845 0.530564 0.5
118 1 0.414828 0.529743 0.5
120 1 0.463353 0.530726 0.5
123 1 0.0479375 0.581324 0.5
122 1 0.0213464 0.633222 0.5
124 1 0.0710821 0.633717 0.5
125 1 0.0941969 0.581161 0.5
126 1 0.117944 0.631412 0.5
127 1 0.143222 0.580809 0.5
128 1 0.167937 0.629694 0.5
129 1 0.190371 0.578829 0.5
130 1 0.215475 0.626162 0.5
131 1 0.240524 0.575935 0.5
132 1 0.263017 0.624073 0.5
133 1 0.290213 0.576607 0.5
134 1 0.315945 0.623336 0.5
135 1 0.341072 0.575894 0.5
136 1 0.364641 0.62346 0.5
137 1 0.38901 0.576145 0.5
138 1 0.412997 0.62621 0.5
139 1 0.438983 0.578912 0.5
140 1 0.463218 0.630951 0.5
331 1 0.488437 0.580806 0.5
143 1 0.0452277 0.682114 0.5
142 1 0.0215083 0.728736 0.5
144 1 0.0686749 0.73054 0.5
145 1 0.095011 0.682019 0.5
146 1 0.117146 0.733436 0.5
147 1 0.144274 0.680865 0.5
149 1 0.19158 0.678014 0.5
148 1 0.166752 0.732233 0.5
151 1 0.239393 0.672631 0.5
150 1 0.215232 0.736502 0.5
152 1 0.261074 0.720336 0.5
153 1 0.287965 0.673039 0.5
154 1 0.309688 0.718892 0.5
155 1 0.336477 0.672252 0.5
156 1 0.357535 0.720302 0.5
157 1 0.384619 0.671552 0.5
159 1 0.4334 0.673682 0.5
158 1 0.404369 0.718435 0.5
351 1 0.484022 0.677898 0.5
160 1 0.453765 0.722125 0.5
411 1 0.493612 0.904238 0.5
163 1 0.0425667 0.778207 0.5
165 1 0.0914717 0.78217 0.5
167 1 0.13947 0.782382 0.5
169 1 0.189101 0.785178 0.5
171 1 0.239312 0.790095 0.5
173 1 0.28127 0.76769 0.5
174 1 0.30522 0.81489 0.5
175 1 0.330129 0.766337 0.5
177 1 0.377553 0.768759 0.5
176 1 0.350722 0.818015 0.5
179 1 0.423445 0.768205 0.5
178 1 0.398942 0.81695 0.5
371 1 0.472883 0.769061 0.5
180 1 0.449949 0.813891 0.5
210 1 0.447008 0.907205 0.5
162 1 0.0154279 0.828421 0.5
164 1 0.0654757 0.828007 0.5
183 1 0.0381195 0.877557 0.5
166 1 0.113716 0.832 0.5
185 1 0.0842617 0.879184 0.5
187 1 0.133377 0.880974 0.5
168 1 0.161601 0.829582 0.5
189 1 0.180833 0.879815 0.5
170 1 0.211858 0.836165 0.5
172 1 0.262177 0.842157 0.5
191 1 0.229987 0.888307 0.5
193 1 0.279342 0.893722 0.5
195 1 0.321028 0.863963 0.5
197 1 0.373858 0.867125 0.5
199 1 0.42341 0.861751 0.5
200 1 0.470935 0.859467 0.5
184 1 0.0595835 0.92551 0.5
202 1 0.0310791 0.978895 0.5
182 1 0.0104613 0.927558 0.5
186 1 0.107598 0.927076 0.5
203 1 0.0780219 0.974277 0.5
204 1 0.12675 0.980661 0.5
188 1 0.154799 0.931193 0.5
205 1 0.174714 0.985024 0.5
190 1 0.201613 0.93518 0.5
192 1 0.253258 0.940549 0.5
206 1 0.222338 0.987072 0.5
207 1 0.267834 0.996373 0.5
194 1 0.301523 0.943085 0.5
208 1 0.314352 0.99878 0.5
209 1 0.347291 0.962235 0.5
196 1 0.344182 0.9101 0.5
198 1 0.39519 0.916631 0.5
391 1 0.496042 0.814948 0.5
121 1 -0.000553914 0.581258 0.5
211 2 0.5 9.93292e-05 0.5
212 2 0.525 0.0497639 0.5
213 2 0.55 9.93292e-05 0.5
214 2 0.575 0.0497639 0.5
215 2 0.6 9.93292e-05 0.5
216 2 0.625 0.0497639 0.5
217 2 0.65 9.93292e-05 0.5
218 2 0.675 0.0497639 0.5
219 2 0.7 9.93292e-05 0.5
220 2 0.725 0.0497639 0.5
221 2 0.75 9.93292e-05 0.5
222 2 0.775 0.0497639 0.5
223 2 0.8 9.93292e-05 0.5
224 2 0.825 0.0497639 0.5
225 2 0.85 9.93292e-05 0.5
226 2 0.875 0.0497639 0.5
227 2 0.9 9.93292e-05 0.5
228 2 0.925 0.0497639 0.5
229 2 0.95 9.93292e-05 0.5
230 2 0.975 0.0497639 0.5
231 2 0.5 0.0994286 0.5
233 2 0.55 0.0994286 0.5
232 1 0.525939 0.148403 0.5
235 2 0.6 0.0994286 0.5
234 1 0.573588 0.144464 0.5
236 1 0.623657 0.14929 0.5
237 2 0.65 0.0994286 0.5
238 1 0.673984 0.147855 0.5
239 2 0.7 0.0994286 0.5
240 1 0.723617 0.147346 0.5
241 2 0.75 0.0994286 0.5
243 2 0.8 0.0994286 0.5
242 1 0.77402 0.145974 0.5
245 2 0.85 0.0994286 0.5
244 1 0.825912 0.148002 0.5
247 2 0.9 0.0994286 0.5
246 1 0.875757 0.144359 0.5
248 1 0.925592 0.144978 0.5
249 2 0.95 0.0994286 0.5
250 1 0.975686 0.146399 0.5
253 1 0.549479 0.197204 0.5
252 1 0.523853 0.246188 0.5
255 1 0.59955 0.200783 0.5
254 1 0.576057 0.2479 0.5
256 1 0.626033 0.249864 0.5
257 1 0.648324 0.200864 0.5
259 1 0.697324 0.196871 0.5
261 1 0.748132 0.194656 0.5
263 1 0.79925 0.193616 0.5
265 1 0.853791 0.192493 0.5
264 1 0.828404 0.236203 0.5
267 1 0.902969 0.192286 0.5
266 1 0.877666 0.237202 0.5
268 1 0.928653 0.240092 0.5
269 1 0.952672 0.192717 0.5
270 1 0.97785 0.240667 0.5
329 1 0.952036 0.481319 0.5
273 1 0.550631 0.293968 0.5
275 1 0.598831 0.297716 0.5
258 1 0.673726 0.249946 0.5
277 1 0.64844 0.297801 0.5
260 1 0.721709 0.243914 0.5
279 1 0.700825 0.296276 0.5
281 1 0.749362 0.292089 0.5
262 1 0.772496 0.241694 0.5
283 1 0.804733 0.283062 0.5
282 1 0.784987 0.330456 0.5
285 1 0.855444 0.282324 0.5
287 1 0.901432 0.286084 0.5
289 1 0.951716 0.28703 0.5
272 1 0.523291 0.342555 0.5
293 1 0.545028 0.392621 0.5
274 1 0.572083 0.344278 0.5
276 1 0.620348 0.34843 0.5
295 1 0.595084 0.396516 0.5
278 1 0.672022 0.347141 0.5
297 1 0.642535 0.395748 0.5
299 1 0.693738 0.393145 0.5
280 1 0.720617 0.34565 0.5
301 1 0.762428 0.376878 0.5
303 1 0.810066 0.377509 0.5
284 1 0.833187 0.33072 0.5
305 1 0.858195 0.38191 0.5
286 1 0.87899 0.334699 0.5
288 1 0.928242 0.33418 0.5
307 1 0.905114 0.382904 0.5
290 1 0.975831 0.335205 0.5
309 1 0.953962 0.384396 0.5
292 1 0.515667 0.437566 0.5
294 1 0.567127 0.440986 0.5
313 1 0.539682 0.486651 0.5
315 1 0.590676 0.492551 0.5
296 1 0.617862 0.443081 0.5
298 1 0.665139 0.445149 0.5
300 1 0.735921 0.418575 0.5
319 1 0.710684 0.463374 0.5
302 1 0.783497 0.422958 0.5
321 1 0.762037 0.468816 0.5
323 1 0.809756 0.471645 0.5
304 1 0.834895 0.427481 0.5
325 1 0.857086 0.477277 0.5
308 1 0.930843 0.432332 0.5
306 1 0.883139 0.42999 0.5
327 1 0.905991 0.481628 0.5
310 1 0.979845 0.43431 0.5
317 1 0.643791 0.496353 0.5
251 1 0.498864 0.198953 0.5
314 1 0.563481 0.538749 0.5
312 1 0.512127 0.535556 0.5
316 1 0.613505 0.540587 0.5
337 1 0.661536 0.551522 0.5
318 1 0.688604 0.509489 0.5
410 1 0.958751 0.927686 0.5
320 1 0.736422 0.511456 0.5
339 1 0.711615 0.559157 0.5
341 1 0.76021 0.561829 0.5
322 1 0.784171 0.516834 0.5
343 1 0.806524 0.568613 0.5
324 1 0.831441 0.521125 0.5
326 1 0.881628 0.527059 0.5
345 1 0.855696 0.572808 0.5
328 1 0.928974 0.52961 0.5
347 1 0.90362 0.575108 0.5
330 1 0.975355 0.529824 0.5
333 1 0.537676 0.585343 0.5
334 1 0.560654 0.638053 0.5
332 1 0.512759 0.635532 0.5
335 1 0.586009 0.589518 0.5
355 1 0.607982 0.640176 0.5
336 1 0.634796 0.59516 0.5
338 1 0.683873 0.602088 0.5
357 1 0.658768 0.645655 0.5
340 1 0.731651 0.609274 0.5
359 1 0.708797 0.655732 0.5
361 1 0.757201 0.665191 0.5
342 1 0.781128 0.615218 0.5
344 1 0.8281 0.62019 0.5
346 1 0.878288 0.623293 0.5
348 1 0.927043 0.624226 0.5
352 1 0.504327 0.727445 0.5
349 1 0.953263 0.578294 0.5
350 1 0.974537 0.62754 0.5
353 1 0.532211 0.683744 0.5
373 1 0.553899 0.732232 0.5
354 1 0.582109 0.688394 0.5
356 1 0.631629 0.688728 0.5
375 1 0.607058 0.735512 0.5
358 1 0.680766 0.698124 0.5
377 1 0.656203 0.743792 0.5
360 1 0.729626 0.706812 0.5
363 1 0.805422 0.67039 0.5
362 1 0.776046 0.714702 0.5
364 1 0.828138 0.719881 0.5
365 1 0.853571 0.669847 0.5
366 1 0.876199 0.720795 0.5
367 1 0.901809 0.674436 0.5
368 1 0.922841 0.726118 0.5
369 1 0.949806 0.676168 0.5
141 1 0.997923 0.681087 0.5
370 1 0.971584 0.728908 0.5
372 1 0.526492 0.775764 0.5
374 1 0.580178 0.778242 0.5
376 1 0.631165 0.789269 0.5
378 1 0.678742 0.798213 0.5
379 1 0.702922 0.750484 0.5
381 1 0.751811 0.761974 0.5
380 1 0.725705 0.807526 0.5
383 1 0.800566 0.767891 0.5
382 1 0.773969 0.811395 0.5
384 1 0.821185 0.816094 0.5
385 1 0.848093 0.76879 0.5
386 1 0.868591 0.818688 0.5
387 1 0.895123 0.775002 0.5
388 1 0.920107 0.825066 0.5
389 1 0.945367 0.775918 0.5
161 1 0.995267 0.777161 0.5
393 1 0.55194 0.820913 0.5
392 1 0.520687 0.859076 0.5
394 1 0.572739 0.86816 0.5
395 1 0.60091 0.82743 0.5
396 1 0.620986 0.882116 0.5
397 1 0.648772 0.839661 0.5
399 1 0.697777 0.851302 0.5
398 1 0.667291 0.891649 0.5
401 1 0.745958 0.857705 0.5
400 1 0.716314 0.902782 0.5
403 1 0.79577 0.862523 0.5
402 1 0.765006 0.908427 0.5
405 1 0.844173 0.867687 0.5
407 1 0.892467 0.871191 0.5
409 1 0.941029 0.876401 0.5
390 1 0.968028 0.826475 0.5
181 1 0.989774 0.875232 0.5
412 1 0.540726 0.907962 0.5
413 1 0.587585 0.920163 0.5
414 1 0.635664 0.936636 0.5
415 1 0.685253 0.94502 0.5
416 1 0.737032 0.953488 0.5
404 1 0.817404 0.913501 0.5
417 1 0.785456 0.961171 0.5
406 1 0.862549 0.918368 0.5
418 1 0.833837 0.971616 0.5
419 1 0.882835 0.973187 0.5
408 1 0.912378 0.922614 0.5
420 1 0.931714 0.973802 0.5
201 1 0.981993 0.975551 0.5
