ITEM: TIMESTEP
28250
ITEM: NUMBER OF ATOMS
420
ITEM: BOX BOUNDS pp ss pp
0.0000000000000000e+00 2.2653923264628304e+01
-1.9618873042551413e-03 2.1567428006739171e+01
-2.8317404080785380e-01 2.8317404080785380e-01
ITEM: ATOMS id type xs ys zs
1 2 0 9.0957e-05 0.5
2 2 0.025 0.0455695 0.5
3 2 0.05 9.0957e-05 0.5
4 2 0.075 0.0455695 0.5
5 2 0.1 9.0957e-05 0.5
6 2 0.125 0.0455695 0.5
7 2 0.15 9.0957e-05 0.5
8 2 0.175 0.0455695 0.5
9 2 0.2 9.0957e-05 0.5
10 2 0.225 0.0455695 0.5
11 2 0.25 9.0957e-05 0.5
12 2 0.275 0.0455695 0.5
13 2 0.3 9.0957e-05 0.5
14 2 0.325 0.0455695 0.5
15 2 0.35 9.0957e-05 0.5
16 2 0.375 0.0455695 0.5
17 2 0.4 9.0957e-05 0.5
18 2 0.425 0.0455695 0.5
19 2 0.45 9.0957e-05 0.5
20 2 0.475 0.0455695 0.5
21 2 0 0.091048 0.5
23 2 0.05 0.091048 0.5
22 1 0.0230422 0.137778 0.5
25 2 0.1 0.091048 0.5
24 1 0.0736126 0.135038 0.5
26 1 0.122739 0.13709 0.5
27 2 0.15 0.091048 0.5
28 1 0.174063 0.134025 0.5
29 2 0.2 0.091048 0.5
30 1 0.222718 0.136831 0.5
31 2 0.25 0.091048 0.5
33 2 0.3 0.091048 0.5
32 1 0.272136 0.1344 0.5
35 2 0.35 0.091048 0.5
34 1 0.324298 0.134773 0.5
36 1 0.373569 0.135389 0.5
37 2 0.4 0.091048 0.5
38 1 0.425318 0.135025 0.5
39 2 0.45 0.091048 0.5
40 1 0.47448 0.134785 0.5
43 1 0.0470257 0.18207 0.5
45 1 0.0957586 0.178764 0.5
47 1 0.147841 0.179789 0.5
49 1 0.194938 0.177014 0.5
51 1 0.248217 0.178194 0.5
53 1 0.298504 0.178739 0.5
55 1 0.350609 0.179434 0.5
57 1 0.402236 0.177285 0.5
59 1 0.451501 0.178571 0.5
42 1 0.022655 0.225517 0.5
63 1 0.0458582 0.268204 0.5
44 1 0.0727846 0.224223 0.5
65 1 0.0979837 0.266637 0.5
46 1 0.12308 0.222758 0.5
48 1 0.171225 0.222317 0.5
67 1 0.146393 0.267805 0.5
50 1 0.220803 0.220414 0.5
69 1 0.192252 0.266827 0.5
71 1 0.242065 0.263959 0.5
52 1 0.271858 0.222393 0.5
73 1 0.293187 0.266309 0.5
54 1 0.32332 0.226278 0.5
75 1 0.348003 0.26561 0.5
56 1 0.374935 0.222134 0.5
58 1 0.4251 0.223134 0.5
77 1 0.398208 0.2668 0.5
60 1 0.474755 0.224467 0.5
79 1 0.447799 0.267706 0.5
102 1 0.0159665 0.495776 0.5
62 1 0.0218482 0.31625 0.5
64 1 0.0704442 0.312403 0.5
66 1 0.118643 0.311223 0.5
85 1 0.0933603 0.355471 0.5
68 1 0.165522 0.313103 0.5
70 1 0.214445 0.30992 0.5
91 1 0.240414 0.351905 0.5
72 1 0.266351 0.306852 0.5
93 1 0.292776 0.351654 0.5
74 1 0.319351 0.305191 0.5
95 1 0.343473 0.350492 0.5
76 1 0.374522 0.309935 0.5
78 1 0.423486 0.311678 0.5
97 1 0.397228 0.353151 0.5
80 1 0.472868 0.312792 0.5
99 1 0.447582 0.354467 0.5
83 1 0.0459927 0.359225 0.5
82 1 0.0191807 0.400116 0.5
86 1 0.116102 0.399522 0.5
84 1 0.0693369 0.401129 0.5
87 1 0.142313 0.354797 0.5
88 1 0.164125 0.398563 0.5
89 1 0.190993 0.356699 0.5
90 1 0.217591 0.401456 0.5
92 1 0.265512 0.3925 0.5
94 1 0.317007 0.395558 0.5
96 1 0.369116 0.393242 0.5
98 1 0.421608 0.396164 0.5
100 1 0.470942 0.399104 0.5
291 1 0.496662 0.357124 0.5
103 1 0.0418645 0.444178 0.5
105 1 0.0639859 0.485904 0.5
107 1 0.0931929 0.443276 0.5
108 1 0.118647 0.485985 0.5
110 1 0.164344 0.487268 0.5
109 1 0.142558 0.440508 0.5
111 1 0.189794 0.442706 0.5
112 1 0.240064 0.444591 0.5
133 1 0.214829 0.489115 0.5
113 1 0.287042 0.435536 0.5
135 1 0.262114 0.493829 0.5
114 1 0.307117 0.479482 0.5
115 1 0.337429 0.438656 0.5
116 1 0.3626 0.478169 0.5
118 1 0.409954 0.48053 0.5
117 1 0.391232 0.434951 0.5
311 1 0.493622 0.446643 0.5
120 1 0.460945 0.486989 0.5
119 1 0.443519 0.440612 0.5
251 1 0.500441 0.181088 0.5
104 1 0.0445865 0.536787 0.5
208 1 0.253432 0.952737 0.5
106 1 0.0901809 0.528686 0.5
129 1 0.137957 0.530347 0.5
131 1 0.187706 0.532269 0.5
134 1 0.233516 0.534982 0.5
136 1 0.285882 0.542682 0.5
137 1 0.334272 0.518763 0.5
138 1 0.329761 0.565687 0.5
139 1 0.381585 0.523415 0.5
331 1 0.429441 0.525244 0.5
333 1 0.475914 0.534486 0.5
123 1 0.0242279 0.586169 0.5
127 1 0.105843 0.575546 0.5
125 1 0.0723189 0.60866 0.5
128 1 0.122905 0.620876 0.5
130 1 0.154062 0.580296 0.5
151 1 0.172981 0.62605 0.5
132 1 0.201092 0.581759 0.5
153 1 0.220334 0.629879 0.5
155 1 0.249785 0.584004 0.5
157 1 0.29579 0.597666 0.5
156 1 0.26729 0.639873 0.5
159 1 0.351891 0.608775 0.5
140 1 0.384899 0.571791 0.5
351 1 0.405506 0.615245 0.5
332 1 0.439756 0.574019 0.5
353 1 0.453831 0.624003 0.5
334 1 0.490737 0.582899 0.5
124 1 0.0428326 0.649218 0.5
143 1 0.0137803 0.688514 0.5
145 1 0.0626835 0.698007 0.5
126 1 0.0900018 0.657377 0.5
147 1 0.111091 0.709713 0.5
149 1 0.137647 0.667386 0.5
152 1 0.187251 0.673557 0.5
154 1 0.238753 0.677597 0.5
177 1 0.289336 0.686366 0.5
158 1 0.317268 0.643219 0.5
179 1 0.33844 0.693268 0.5
160 1 0.370949 0.652064 0.5
352 1 0.419885 0.664636 0.5
371 1 0.385545 0.698173 0.5
372 1 0.438901 0.709886 0.5
373 1 0.471732 0.67083 0.5
144 1 0.032052 0.739535 0.5
146 1 0.0808425 0.750984 0.5
148 1 0.130406 0.756173 0.5
150 1 0.16001 0.714723 0.5
171 1 0.180111 0.760061 0.5
173 1 0.208938 0.717691 0.5
174 1 0.228528 0.76606 0.5
175 1 0.257872 0.724572 0.5
176 1 0.274927 0.77273 0.5
178 1 0.306893 0.733888 0.5
180 1 0.356463 0.740633 0.5
199 1 0.323767 0.781868 0.5
391 1 0.404186 0.742334 0.5
393 1 0.4873 0.719074 0.5
392 1 0.457553 0.757052 0.5
192 1 0.205433 0.945791 0.5
165 1 0.0501798 0.793192 0.5
164 1 0.0181427 0.831176 0.5
167 1 0.0999786 0.79712 0.5
166 1 0.0691583 0.839159 0.5
168 1 0.117719 0.845187 0.5
169 1 0.150435 0.803289 0.5
170 1 0.165754 0.851765 0.5
172 1 0.197685 0.807684 0.5
195 1 0.244474 0.814063 0.5
197 1 0.294215 0.821358 0.5
200 1 0.373027 0.790202 0.5
210 1 0.341777 0.829229 0.5
411 1 0.420174 0.786376 0.5
185 1 0.0388481 0.883016 0.5
184 1 0.0106355 0.923047 0.5
187 1 0.0869328 0.885212 0.5
189 1 0.135735 0.891152 0.5
191 1 0.183433 0.899975 0.5
193 1 0.212427 0.85569 0.5
194 1 0.233135 0.903894 0.5
209 1 0.281399 0.910385 0.5
196 1 0.261301 0.860913 0.5
198 1 0.308217 0.867387 0.5
203 1 0.0292826 0.970278 0.5
186 1 0.0572697 0.928826 0.5
188 1 0.108089 0.935243 0.5
204 1 0.0775933 0.976076 0.5
205 1 0.125538 0.985272 0.5
206 1 0.17332 0.991776 0.5
190 1 0.15521 0.945639 0.5
207 1 0.223852 0.998883 0.5
163 1 0.00223775 0.784062 0.5
211 2 0.5 9.0957e-05 0.5
212 2 0.525 0.0455695 0.5
213 2 0.55 9.0957e-05 0.5
214 2 0.575 0.0455695 0.5
215 2 0.6 9.0957e-05 0.5
216 2 0.625 0.0455695 0.5
217 2 0.65 9.0957e-05 0.5
218 2 0.675 0.0455695 0.5
219 2 0.7 9.0957e-05 0.5
220 2 0.725 0.0455695 0.5
221 2 0.75 9.0957e-05 0.5
222 2 0.775 0.0455695 0.5
223 2 0.8 9.0957e-05 0.5
224 2 0.825 0.0455695 0.5
225 2 0.85 9.0957e-05 0.5
226 2 0.875 0.0455695 0.5
227 2 0.9 9.0957e-05 0.5
228 2 0.925 0.0455695 0.5
229 2 0.95 9.0957e-05 0.5
230 2 0.975 0.0455695 0.5
231 2 0.5 0.091048 0.5
233 2 0.55 0.091048 0.5
232 1 0.525897 0.134322 0.5
235 2 0.6 0.091048 0.5
234 1 0.574061 0.135117 0.5
236 1 0.623928 0.134865 0.5
237 2 0.65 0.091048 0.5
238 1 0.673414 0.137781 0.5
239 2 0.7 0.091048 0.5
240 1 0.723646 0.137023 0.5
241 2 0.75 0.091048 0.5
243 2 0.8 0.091048 0.5
242 1 0.773607 0.135302 0.5
245 2 0.85 0.091048 0.5
244 1 0.824285 0.134345 0.5
246 1 0.874383 0.135561 0.5
247 2 0.9 0.091048 0.5
248 1 0.921809 0.136438 0.5
249 2 0.95 0.091048 0.5
250 1 0.974831 0.133901 0.5
253 1 0.550426 0.179936 0.5
330 1 0.968219 0.495897 0.5
255 1 0.600473 0.181473 0.5
257 1 0.647879 0.182781 0.5
259 1 0.69892 0.181509 0.5
261 1 0.748697 0.179657 0.5
263 1 0.799864 0.17849 0.5
265 1 0.848977 0.1797 0.5
267 1 0.897963 0.179168 0.5
269 1 0.947351 0.180809 0.5
41 1 0.997633 0.180979 0.5
252 1 0.525017 0.224289 0.5
273 1 0.548576 0.268252 0.5
254 1 0.573592 0.224949 0.5
275 1 0.598191 0.269475 0.5
256 1 0.62201 0.226526 0.5
258 1 0.672423 0.226074 0.5
277 1 0.648375 0.272191 0.5
260 1 0.723721 0.226265 0.5
279 1 0.699435 0.27096 0.5
281 1 0.748771 0.268482 0.5
262 1 0.773585 0.223845 0.5
283 1 0.798071 0.266287 0.5
264 1 0.825211 0.222952 0.5
285 1 0.847191 0.269535 0.5
266 1 0.874332 0.223353 0.5
268 1 0.920856 0.225852 0.5
287 1 0.896967 0.272172 0.5
270 1 0.972723 0.224771 0.5
289 1 0.946975 0.26792 0.5
61 1 0.997936 0.271613 0.5
272 1 0.52133 0.312744 0.5
274 1 0.573928 0.31326 0.5
276 1 0.622886 0.315292 0.5
278 1 0.673008 0.313927 0.5
280 1 0.723772 0.314504 0.5
282 1 0.770587 0.315409 0.5
284 1 0.819295 0.312441 0.5
286 1 0.871493 0.313999 0.5
288 1 0.921089 0.315316 0.5
290 1 0.966778 0.31334 0.5
293 1 0.548728 0.35805 0.5
292 1 0.520821 0.400611 0.5
294 1 0.571157 0.40573 0.5
295 1 0.596539 0.362049 0.5
296 1 0.62038 0.407782 0.5
297 1 0.647223 0.361936 0.5
298 1 0.670339 0.406628 0.5
299 1 0.69658 0.358142 0.5
300 1 0.723535 0.402546 0.5
301 1 0.745663 0.359195 0.5
303 1 0.796493 0.360682 0.5
302 1 0.773208 0.406188 0.5
305 1 0.846024 0.358635 0.5
304 1 0.824439 0.406681 0.5
306 1 0.87186 0.406155 0.5
307 1 0.894991 0.35986 0.5
308 1 0.92067 0.403721 0.5
309 1 0.945385 0.360277 0.5
81 1 0.995262 0.355165 0.5
310 1 0.968515 0.404584 0.5
313 1 0.543113 0.451838 0.5
312 1 0.509369 0.492989 0.5
315 1 0.593246 0.45239 0.5
317 1 0.64267 0.453244 0.5
318 1 0.677749 0.490662 0.5
319 1 0.698642 0.446878 0.5
321 1 0.748406 0.44923 0.5
320 1 0.72506 0.493306 0.5
323 1 0.798001 0.45078 0.5
322 1 0.775112 0.49553 0.5
326 1 0.872488 0.497376 0.5
325 1 0.84679 0.451891 0.5
324 1 0.823503 0.498055 0.5
327 1 0.897612 0.450691 0.5
271 1 0.496657 0.267441 0.5
329 1 0.944599 0.451478 0.5
101 1 0.993857 0.451709 0.5
335 1 0.526245 0.541471 0.5
314 1 0.558205 0.499707 0.5
336 1 0.573667 0.551274 0.5
357 1 0.621461 0.572684 0.5
316 1 0.605954 0.500016 0.5
337 1 0.649694 0.530233 0.5
339 1 0.697963 0.538508 0.5
341 1 0.746926 0.539119 0.5
343 1 0.796456 0.541523 0.5
345 1 0.847091 0.543397 0.5
347 1 0.895129 0.541685 0.5
349 1 0.94507 0.543505 0.5
121 1 0.995132 0.541865 0.5
355 1 0.541558 0.592903 0.5
354 1 0.501749 0.629592 0.5
356 1 0.587075 0.607171 0.5
338 1 0.669982 0.577445 0.5
358 1 0.641677 0.617825 0.5
340 1 0.719145 0.580825 0.5
359 1 0.690962 0.624851 0.5
361 1 0.741626 0.626519 0.5
342 1 0.770265 0.585073 0.5
363 1 0.794589 0.629429 0.5
344 1 0.819685 0.585067 0.5
365 1 0.843661 0.630758 0.5
346 1 0.86905 0.588311 0.5
348 1 0.918238 0.590678 0.5
367 1 0.891168 0.632232 0.5
350 1 0.968639 0.590067 0.5
374 1 0.519769 0.678214 0.5
375 1 0.552288 0.641246 0.5
377 1 0.607279 0.653979 0.5
376 1 0.569015 0.688106 0.5
378 1 0.619222 0.701546 0.5
379 1 0.658011 0.666729 0.5
360 1 0.706867 0.676321 0.5
362 1 0.765476 0.670253 0.5
364 1 0.814723 0.674255 0.5
366 1 0.863679 0.675303 0.5
368 1 0.913935 0.677077 0.5
369 1 0.943104 0.636122 0.5
122 1 0.994555 0.638177 0.5
141 1 0.964867 0.682985 0.5
394 1 0.535271 0.725068 0.5
413 1 0.552126 0.776478 0.5
395 1 0.583938 0.738185 0.5
380 1 0.672057 0.715794 0.5
397 1 0.632697 0.750039 0.5
399 1 0.671634 0.778734 0.5
381 1 0.739787 0.71222 0.5
401 1 0.708955 0.749977 0.5
383 1 0.786497 0.715633 0.5
382 1 0.759937 0.756214 0.5
384 1 0.807703 0.761884 0.5
385 1 0.83382 0.719962 0.5
386 1 0.856597 0.763153 0.5
387 1 0.884518 0.719329 0.5
389 1 0.904723 0.768679 0.5
370 1 0.932429 0.723363 0.5
142 1 0.983217 0.734358 0.5
161 1 0.952891 0.775455 0.5
396 1 0.599097 0.787944 0.5
414 1 0.641178 0.815635 0.5
398 1 0.687514 0.828974 0.5
400 1 0.728716 0.798633 0.5
403 1 0.77798 0.803888 0.5
405 1 0.82701 0.811325 0.5
388 1 0.875841 0.81195 0.5
390 1 0.923087 0.817112 0.5
162 1 0.970707 0.823875 0.5
202 1 0.980423 0.964721 0.5
415 1 0.7026 0.878325 0.5
402 1 0.745454 0.84957 0.5
416 1 0.727479 0.924705 0.5
404 1 0.795273 0.855066 0.5
417 1 0.766283 0.898676 0.5
407 1 0.846115 0.859587 0.5
406 1 0.814859 0.902404 0.5
408 1 0.862998 0.90416 0.5
409 1 0.89418 0.85984 0.5
410 1 0.911901 0.906945 0.5
182 1 0.960755 0.914328 0.5
181 1 0.942293 0.864946 0.5
183 1 0.989896 0.874911 0.5
418 1 0.787464 0.945723 0.5
419 1 0.834181 0.950464 0.5
420 1 0.882038 0.950176 0.5
201 1 0.932474 0.955827 0.5
412 1 0.504416 0.767373 0.5
328 1 0.920316 0.497206 0.5
