LAMMPS (29 Sep 2021 - Update 2)
# 2d indenter simulation

dimension	2
boundary	p s p

atom_style	atomic
neighbor	0.3 bin
neigh_modify	delay 5

# create geometry

lattice		hex 0.9
Lattice spacing in x,y,z = 1.1326962 1.9618873 1.1326962
region		box block 0 20 0 10 -0.25 0.25
create_box	2 box
Created orthogonal box = (0.0000000 0.0000000 -0.28317404) to (22.653923 19.618873 0.28317404)
  2 by 2 by 1 MPI processor grid
create_atoms	1 box
Created 420 atoms
  using lattice units in orthogonal box = (0.0000000 -0.0019618873 -0.28317404) to (22.653923 19.620835 0.28317404)
  create_atoms CPU = 0.000 seconds

mass		1 1.0
mass		2 1.0

# LJ potentials

pair_style	lj/cut 2.5
pair_coeff	* * 1.0 1.0 2.5

# define groups

region	        1 block INF INF INF 1.25 INF INF
group		lower region 1
60 atoms in group lower
group		mobile subtract all lower
360 atoms in group mobile
set		group lower type 2
Setting atom values ...
  60 settings made for type

# initial velocities

compute	  	new mobile temp
velocity	mobile create 0.1 482748 temp new
fix		1 all nve
fix		2 lower setforce 0.0 0.0 0.0
fix		3 all temp/rescale 100 0.1 0.1 0.01 1.0

# run with indenter

timestep	0.003
variable	k equal 1000.0/xlat
variable        y equal "13.0*ylat - step*dt*0.02*ylat"

fix		4 all indent $k sphere 10 v_y 0 5.0
fix		4 all indent 882.849286914813 sphere 10 v_y 0 5.0
fix		5 all enforce2d

thermo		1000
thermo_modify	temp new
WARNING: Temperature for thermo pressure is not for group all (../thermo.cpp:482)

dump		1 all atom 250 dump.indent.*

#compute		myRDF all rdf 50

#fix		11 all ave/time 100 1 100 c_my_RDF[*] file tmp_0.1.rdf mode vector

#dump		2 all image 1000 image.*.jpg type type #		zoom 1.6 adiam 1.5
#dump_modify	2 pad 5

#dump		3 all movie 1000 movie.mpg type type #		zoom 1.6 adiam 1.5
#dump_modify	3 pad 5

run		30000
Neighbor list info ...
  update every 1 steps, delay 5 steps, check yes
  max neighbors/atom: 2000, page size: 100000
  master list distance cutoff = 2.8
  ghost atom cutoff = 2.8
  binsize = 1.4, bins = 17 15 1
  1 neighbor lists, perpetual/occasional/extra = 1 0 0
  (1) pair lj/cut, perpetual
      attributes: half, newton on
      pair build: half/bin/atomonly/newton
      stencil: half/bin/2d
      bin: standard
Per MPI rank memory allocation (min/avg/max) = 4.052 | 4.052 | 4.052 Mbytes
Step Temp E_pair E_mol TotEng Press Volume 
       0          0.1   -3.1727576            0   -3.0872814   -1.5169438    444.53333 
    1000     0.116765   -3.0984556            0   -2.9986494  0.047429041    440.42836 
    2000    0.1054555   -3.0887819            0   -2.9986425  -0.56683586    445.76451 
    3000   0.12238553   -3.0802611            0   -2.9756506  -0.35322236    444.79234 
    4000   0.12196888   -3.0919435            0   -2.9876892   0.14357238    438.43691 
    5000    0.1231133   -3.0917226            0   -2.9864901  -0.55043748    445.82405 
    6000   0.12075285   -3.0878213            0   -2.9846064    0.1033593    439.74148 
    7000   0.11236502   -3.0788007            0   -2.9827553  -0.27863221     444.4268 
    8000   0.12600624   -3.0848163            0    -2.977111   0.14424773    441.83171 
    9000   0.12269504   -3.0892469            0   -2.9843718   0.27390345    440.24708 
   10000   0.11908975   -3.0782342            0   -2.9764408   0.37668806    441.77586 
   11000   0.11675391   -3.0824836            0   -2.9826868    0.5558544    438.15091 
   12000   0.10829486   -3.0638544            0   -2.9712881   0.59827493     441.4397 
   13000   0.10912974   -3.0533197            0   -2.9600397    1.0987738    436.33847 
   14000   0.11671309   -3.0584415            0   -2.9586796   0.79507117    442.48815 
   15000   0.11453873   -3.0560785            0   -2.9581752    1.0861206    450.78282 
   16000   0.12385415   -3.0536592            0   -2.9477934    1.4007907    439.80787 
   17000   0.11810209   -3.0378438            0   -2.9368947    1.5320339    440.52246 
   18000   0.11613973      -3.0199            0   -2.9206282    1.6402334    447.44581 
   19000   0.11671309   -3.0171531            0   -2.9173912    1.5631799    451.81643 
   20000   0.12713566   -3.0098427            0    -2.901172    1.2666527    460.42973 
   21000   0.11672687   -2.9969983            0   -2.8972246    1.1628579    476.00176 
   22000   0.11671309   -3.0180924            0   -2.9183305   0.79488061    475.48286 
   23000   0.11331814   -3.0191666            0   -2.9223065    1.0266776     470.8682 
   24000   0.11658817   -3.0113045            0   -2.9116494   0.87373031    473.23823 
   25000   0.11671309    -3.025723            0   -2.9259611   0.82295114     483.8478 
   26000   0.11474859   -3.0129863            0   -2.9149035   0.28222872    487.41884 
   27000   0.11909207   -3.0087258            0   -2.9069304   0.35686648    489.00364 
   28000   0.12375774   -3.0052833            0   -2.8994999   0.65466743    483.48999 
   29000   0.11303994    -3.013138            0   -2.9165158   0.61251659    487.12841 
   30000    0.1220091   -3.0244833            0   -2.9201946   0.86755107    485.47879 
Loop time of 0.920254 on 4 procs for 30000 steps with 420 atoms

Performance: 8449842.083 tau/day, 32599.699 timesteps/s
98.8% CPU use with 4 MPI tasks x no OpenMP threads

MPI task timing breakdown:
Section |  min time  |  avg time  |  max time  |%varavg| %total
---------------------------------------------------------------
Pair    | 0.36126    | 0.41085    | 0.45918    |   7.0 | 44.65
Neigh   | 0.014984   | 0.016516   | 0.01824    |   1.2 |  1.79
Comm    | 0.14764    | 0.20382    | 0.25969    |  11.7 | 22.15
Output  | 0.040519   | 0.041525   | 0.042776   |   0.5 |  4.51
Modify  | 0.1846     | 0.19111    | 0.20035    |   1.4 | 20.77
Other   |            | 0.05643    |            |       |  6.13

Nlocal:        105.000 ave         118 max          93 min
Histogram: 2 0 0 0 0 0 0 0 0 2
Nghost:        91.2500 ave          99 max          84 min
Histogram: 2 0 0 0 0 0 0 0 1 1
Neighs:        898.000 ave        1066 max         730 min
Histogram: 2 0 0 0 0 0 0 0 0 2

Total # of neighbors = 3592
Ave neighs/atom = 8.5523810
Neighbor list builds = 616
Dangerous builds = 0

# run without indenter

unfix           4
run		30000
Per MPI rank memory allocation (min/avg/max) = 4.053 | 4.053 | 4.053 Mbytes
Step Temp E_pair E_mol TotEng Press Volume 
   30000    0.1220091   -3.0244833            0   -2.9201946   0.86644955    486.09598 
   31000   0.11355969   -3.0466707            0   -2.9496042  -0.38505983    484.91024 
   32000   0.11723649    -3.037776            0   -2.9375667  -0.49119341    487.41444 
   33000   0.11855971   -3.0499077            0   -2.9485673  0.041444188    479.69051 
   34000   0.12083241   -3.0522736            0   -2.9489907  -0.58439177    484.51459 
   35000   0.12515063   -3.0731953            0   -2.9662213  -0.31199081    467.17759 
   36000   0.11153438   -3.0755711            0   -2.9802357 -0.060423417    465.18878 
   37000   0.12045071   -3.0721992            0   -2.9692425  -0.66434672    468.95141 
   38000   0.12295395   -3.0868296            0   -2.9817332  -0.16525484     462.0395 
   39000     0.113967   -3.0915253            0   -2.9941106  -0.22501236    463.67582 
   40000   0.11604946   -3.0696845            0   -2.9704898  -0.49488962    467.10823 
   41000    0.1085954   -3.0762525            0   -2.9834293 -0.075875522    463.36646 
   42000   0.11764389   -3.0839894            0   -2.9834319  -0.38644533    466.46783 
   43000   0.11671309   -3.0719611            0   -2.9721992   -0.5645202    468.99695 
   44000   0.11730781   -3.0826144            0   -2.9823441  -0.15175594     464.1637 
   45000   0.11681206   -3.0821893            0   -2.9823428  -0.52143715    467.82025 
   46000   0.11707968   -3.0824194            0   -2.9823442  -0.39452344    465.13672 
   47000   0.11335312   -3.0792303            0   -2.9823404  -0.11761994    461.91354 
   48000   0.11213919   -3.0781919            0   -2.9823396  -0.54859994    468.40885 
   49000   0.11900865   -3.0840648            0   -2.9823407  -0.25873136    464.73308 
   50000   0.11099339    -3.088329            0   -2.9934561  -0.23806421       464.37 
   51000   0.11043603   -3.0732774            0   -2.9788809  -0.39702963    466.06087 
   52000   0.11609787   -3.0781196            0   -2.9788836  -0.19827678    463.78024 
   53000   0.11629193   -3.0782489            0   -2.9788469  -0.36258453    464.89118 
   54000   0.12515856    -3.085868            0   -2.9788872  -0.57990706    467.74659 
   55000   0.12479317   -3.0855545            0    -2.978886  -0.26955134    464.52168 
   56000   0.11562421   -3.0777131            0   -2.9788819  -0.33611158    467.68752 
   57000   0.11424124   -3.0765325            0   -2.9788835   -0.3250737    466.25147 
   58000   0.11952737   -3.0810523            0   -2.9788849  -0.25511209    464.28185 
   59000   0.11145283   -3.0741481            0   -2.9788824  -0.34653997    468.16831 
   60000   0.11928026   -3.0808408            0   -2.9788846  -0.28122549    464.46333 
Loop time of 0.754459 on 4 procs for 30000 steps with 420 atoms

Performance: 10306722.833 tau/day, 39763.591 timesteps/s
98.8% CPU use with 4 MPI tasks x no OpenMP threads

MPI task timing breakdown:
Section |  min time  |  avg time  |  max time  |%varavg| %total
---------------------------------------------------------------
Pair    | 0.35514    | 0.40707    | 0.45179    |   6.9 | 53.96
Neigh   | 0.013819   | 0.016733   | 0.019574   |   2.1 |  2.22
Comm    | 0.13752    | 0.19141    | 0.25119    |  12.2 | 25.37
Output  | 0.040055   | 0.040988   | 0.042193   |   0.4 |  5.43
Modify  | 0.046408   | 0.052083   | 0.058089   |   2.2 |  6.90
Other   |            | 0.04617    |            |       |  6.12

Nlocal:        105.000 ave         110 max          97 min
Histogram: 1 0 0 0 1 0 0 0 0 2
Nghost:        93.7500 ave          98 max          90 min
Histogram: 1 1 0 0 0 0 0 1 0 1
Neighs:        892.250 ave         996 max         782 min
Histogram: 1 1 0 0 0 0 0 0 0 2

Total # of neighbors = 3569
Ave neighs/atom = 8.4976190
Neighbor list builds = 625
Dangerous builds = 0
Total wall time: 0:00:01
