ITEM: TIMESTEP
0
ITEM: NUMBER OF ATOMS
420
ITEM: BOX BOUNDS pp ss pp
0.0000000000000000e+00 2.2653923264628304e+01
-1.9618873042551413e-03 1.9620834929855668e+01
-2.8317404080785380e-01 2.8317404080785380e-01
ITEM: ATOMS id type xs ys zs
1 2 0 9.998e-05 0.5
2 2 0.025 0.05009 0.5
3 2 0.05 9.998e-05 0.5
4 2 0.075 0.05009 0.5
5 2 0.1 9.998e-05 0.5
6 2 0.125 0.05009 0.5
7 2 0.15 9.998e-05 0.5
8 2 0.175 0.05009 0.5
9 2 0.2 9.998e-05 0.5
10 2 0.225 0.05009 0.5
11 2 0.25 9.998e-05 0.5
12 2 0.275 0.05009 0.5
13 2 0.3 9.998e-05 0.5
14 2 0.325 0.05009 0.5
15 2 0.35 9.998e-05 0.5
16 2 0.375 0.05009 0.5
17 2 0.4 9.998e-05 0.5
18 2 0.425 0.05009 0.5
19 2 0.45 9.998e-05 0.5
20 2 0.475 0.05009 0.5
21 2 0 0.10008 0.5
23 2 0.05 0.10008 0.5
25 2 0.1 0.10008 0.5
27 2 0.15 0.10008 0.5
29 2 0.2 0.10008 0.5
31 2 0.25 0.10008 0.5
33 2 0.3 0.10008 0.5
35 2 0.35 0.10008 0.5
37 2 0.4 0.10008 0.5
39 2 0.45 0.10008 0.5
22 1 0.025 0.15007 0.5
41 1 0 0.20006 0.5
43 1 0.05 0.20006 0.5
24 1 0.075 0.15007 0.5
45 1 0.1 0.20006 0.5
26 1 0.125 0.15007 0.5
28 1 0.175 0.15007 0.5
47 1 0.15 0.20006 0.5
30 1 0.225 0.15007 0.5
49 1 0.2 0.20006 0.5
32 1 0.275 0.15007 0.5
51 1 0.25 0.20006 0.5
53 1 0.3 0.20006 0.5
34 1 0.325 0.15007 0.5
55 1 0.35 0.20006 0.5
36 1 0.375 0.15007 0.5
38 1 0.425 0.15007 0.5
57 1 0.4 0.20006 0.5
40 1 0.475 0.15007 0.5
59 1 0.45 0.20006 0.5
42 1 0.025 0.25005 0.5
44 1 0.075 0.25005 0.5
46 1 0.125 0.25005 0.5
48 1 0.175 0.25005 0.5
50 1 0.225 0.25005 0.5
52 1 0.275 0.25005 0.5
54 1 0.325 0.25005 0.5
56 1 0.375 0.25005 0.5
58 1 0.425 0.25005 0.5
60 1 0.475 0.25005 0.5
61 1 0 0.30004 0.5
62 1 0.025 0.35003 0.5
63 1 0.05 0.30004 0.5
64 1 0.075 0.35003 0.5
65 1 0.1 0.30004 0.5
66 1 0.125 0.35003 0.5
67 1 0.15 0.30004 0.5
68 1 0.175 0.35003 0.5
69 1 0.2 0.30004 0.5
70 1 0.225 0.35003 0.5
71 1 0.25 0.30004 0.5
72 1 0.275 0.35003 0.5
73 1 0.3 0.30004 0.5
74 1 0.325 0.35003 0.5
75 1 0.35 0.30004 0.5
76 1 0.375 0.35003 0.5
77 1 0.4 0.30004 0.5
78 1 0.425 0.35003 0.5
79 1 0.45 0.30004 0.5
80 1 0.475 0.35003 0.5
81 1 0 0.40002 0.5
83 1 0.05 0.40002 0.5
85 1 0.1 0.40002 0.5
87 1 0.15 0.40002 0.5
89 1 0.2 0.40002 0.5
91 1 0.25 0.40002 0.5
93 1 0.3 0.40002 0.5
95 1 0.35 0.40002 0.5
97 1 0.4 0.40002 0.5
99 1 0.45 0.40002 0.5
82 1 0.025 0.45001 0.5
84 1 0.075 0.45001 0.5
86 1 0.125 0.45001 0.5
88 1 0.175 0.45001 0.5
90 1 0.225 0.45001 0.5
92 1 0.275 0.45001 0.5
94 1 0.325 0.45001 0.5
96 1 0.375 0.45001 0.5
98 1 0.425 0.45001 0.5
100 1 0.475 0.45001 0.5
101 1 0 0.5 0.5
102 1 0.025 0.54999 0.5
103 1 0.05 0.5 0.5
104 1 0.075 0.54999 0.5
105 1 0.1 0.5 0.5
106 1 0.125 0.54999 0.5
107 1 0.15 0.5 0.5
108 1 0.175 0.54999 0.5
109 1 0.2 0.5 0.5
110 1 0.225 0.54999 0.5
111 1 0.25 0.5 0.5
112 1 0.275 0.54999 0.5
113 1 0.3 0.5 0.5
114 1 0.325 0.54999 0.5
115 1 0.35 0.5 0.5
116 1 0.375 0.54999 0.5
117 1 0.4 0.5 0.5
118 1 0.425 0.54999 0.5
119 1 0.45 0.5 0.5
120 1 0.475 0.54999 0.5
121 1 0 0.59998 0.5
123 1 0.05 0.59998 0.5
125 1 0.1 0.59998 0.5
127 1 0.15 0.59998 0.5
129 1 0.2 0.59998 0.5
131 1 0.25 0.59998 0.5
133 1 0.3 0.59998 0.5
135 1 0.35 0.59998 0.5
137 1 0.4 0.59998 0.5
139 1 0.45 0.59998 0.5
122 1 0.025 0.64997 0.5
141 1 0 0.69996 0.5
143 1 0.05 0.69996 0.5
124 1 0.075 0.64997 0.5
145 1 0.1 0.69996 0.5
126 1 0.125 0.64997 0.5
128 1 0.175 0.64997 0.5
147 1 0.15 0.69996 0.5
130 1 0.225 0.64997 0.5
149 1 0.2 0.69996 0.5
132 1 0.275 0.64997 0.5
151 1 0.25 0.69996 0.5
153 1 0.3 0.69996 0.5
134 1 0.325 0.64997 0.5
155 1 0.35 0.69996 0.5
136 1 0.375 0.64997 0.5
138 1 0.425 0.64997 0.5
157 1 0.4 0.69996 0.5
140 1 0.475 0.64997 0.5
159 1 0.45 0.69996 0.5
142 1 0.025 0.74995 0.5
144 1 0.075 0.74995 0.5
146 1 0.125 0.74995 0.5
148 1 0.175 0.74995 0.5
150 1 0.225 0.74995 0.5
152 1 0.275 0.74995 0.5
154 1 0.325 0.74995 0.5
156 1 0.375 0.74995 0.5
158 1 0.425 0.74995 0.5
160 1 0.475 0.74995 0.5
161 1 0 0.79994 0.5
162 1 0.025 0.84993 0.5
163 1 0.05 0.79994 0.5
164 1 0.075 0.84993 0.5
165 1 0.1 0.79994 0.5
166 1 0.125 0.84993 0.5
167 1 0.15 0.79994 0.5
168 1 0.175 0.84993 0.5
169 1 0.2 0.79994 0.5
170 1 0.225 0.84993 0.5
171 1 0.25 0.79994 0.5
172 1 0.275 0.84993 0.5
173 1 0.3 0.79994 0.5
174 1 0.325 0.84993 0.5
175 1 0.35 0.79994 0.5
176 1 0.375 0.84993 0.5
177 1 0.4 0.79994 0.5
178 1 0.425 0.84993 0.5
179 1 0.45 0.79994 0.5
180 1 0.475 0.84993 0.5
181 1 0 0.89992 0.5
183 1 0.05 0.89992 0.5
185 1 0.1 0.89992 0.5
187 1 0.15 0.89992 0.5
189 1 0.2 0.89992 0.5
191 1 0.25 0.89992 0.5
193 1 0.3 0.89992 0.5
195 1 0.35 0.89992 0.5
197 1 0.4 0.89992 0.5
199 1 0.45 0.89992 0.5
182 1 0.025 0.94991 0.5
201 1 0 0.9999 0.5
202 1 0.05 0.9999 0.5
184 1 0.075 0.94991 0.5
203 1 0.1 0.9999 0.5
186 1 0.125 0.94991 0.5
188 1 0.175 0.94991 0.5
204 1 0.15 0.9999 0.5
190 1 0.225 0.94991 0.5
205 1 0.2 0.9999 0.5
192 1 0.275 0.94991 0.5
206 1 0.25 0.9999 0.5
207 1 0.3 0.9999 0.5
194 1 0.325 0.94991 0.5
208 1 0.35 0.9999 0.5
196 1 0.375 0.94991 0.5
198 1 0.425 0.94991 0.5
209 1 0.4 0.9999 0.5
200 1 0.475 0.94991 0.5
210 1 0.45 0.9999 0.5
211 2 0.5 9.998e-05 0.5
212 2 0.525 0.05009 0.5
213 2 0.55 9.998e-05 0.5
214 2 0.575 0.05009 0.5
215 2 0.6 9.998e-05 0.5
216 2 0.625 0.05009 0.5
217 2 0.65 9.998e-05 0.5
218 2 0.675 0.05009 0.5
219 2 0.7 9.998e-05 0.5
220 2 0.725 0.05009 0.5
221 2 0.75 9.998e-05 0.5
222 2 0.775 0.05009 0.5
223 2 0.8 9.998e-05 0.5
224 2 0.825 0.05009 0.5
225 2 0.85 9.998e-05 0.5
226 2 0.875 0.05009 0.5
227 2 0.9 9.998e-05 0.5
228 2 0.925 0.05009 0.5
229 2 0.95 9.998e-05 0.5
230 2 0.975 0.05009 0.5
231 2 0.5 0.10008 0.5
233 2 0.55 0.10008 0.5
235 2 0.6 0.10008 0.5
237 2 0.65 0.10008 0.5
239 2 0.7 0.10008 0.5
241 2 0.75 0.10008 0.5
243 2 0.8 0.10008 0.5
245 2 0.85 0.10008 0.5
247 2 0.9 0.10008 0.5
249 2 0.95 0.10008 0.5
232 1 0.525 0.15007 0.5
251 1 0.5 0.20006 0.5
253 1 0.55 0.20006 0.5
234 1 0.575 0.15007 0.5
255 1 0.6 0.20006 0.5
236 1 0.625 0.15007 0.5
238 1 0.675 0.15007 0.5
257 1 0.65 0.20006 0.5
240 1 0.725 0.15007 0.5
259 1 0.7 0.20006 0.5
242 1 0.775 0.15007 0.5
261 1 0.75 0.20006 0.5
263 1 0.8 0.20006 0.5
244 1 0.825 0.15007 0.5
265 1 0.85 0.20006 0.5
246 1 0.875 0.15007 0.5
248 1 0.925 0.15007 0.5
267 1 0.9 0.20006 0.5
250 1 0.975 0.15007 0.5
269 1 0.95 0.20006 0.5
252 1 0.525 0.25005 0.5
254 1 0.575 0.25005 0.5
256 1 0.625 0.25005 0.5
258 1 0.675 0.25005 0.5
260 1 0.725 0.25005 0.5
262 1 0.775 0.25005 0.5
264 1 0.825 0.25005 0.5
266 1 0.875 0.25005 0.5
268 1 0.925 0.25005 0.5
270 1 0.975 0.25005 0.5
271 1 0.5 0.30004 0.5
272 1 0.525 0.35003 0.5
273 1 0.55 0.30004 0.5
274 1 0.575 0.35003 0.5
275 1 0.6 0.30004 0.5
276 1 0.625 0.35003 0.5
277 1 0.65 0.30004 0.5
278 1 0.675 0.35003 0.5
279 1 0.7 0.30004 0.5
280 1 0.725 0.35003 0.5
281 1 0.75 0.30004 0.5
282 1 0.775 0.35003 0.5
283 1 0.8 0.30004 0.5
284 1 0.825 0.35003 0.5
285 1 0.85 0.30004 0.5
286 1 0.875 0.35003 0.5
287 1 0.9 0.30004 0.5
288 1 0.925 0.35003 0.5
289 1 0.95 0.30004 0.5
290 1 0.975 0.35003 0.5
291 1 0.5 0.40002 0.5
293 1 0.55 0.40002 0.5
295 1 0.6 0.40002 0.5
297 1 0.65 0.40002 0.5
299 1 0.7 0.40002 0.5
301 1 0.75 0.40002 0.5
303 1 0.8 0.40002 0.5
305 1 0.85 0.40002 0.5
307 1 0.9 0.40002 0.5
309 1 0.95 0.40002 0.5
292 1 0.525 0.45001 0.5
294 1 0.575 0.45001 0.5
296 1 0.625 0.45001 0.5
298 1 0.675 0.45001 0.5
300 1 0.725 0.45001 0.5
302 1 0.775 0.45001 0.5
304 1 0.825 0.45001 0.5
306 1 0.875 0.45001 0.5
308 1 0.925 0.45001 0.5
310 1 0.975 0.45001 0.5
311 1 0.5 0.5 0.5
312 1 0.525 0.54999 0.5
313 1 0.55 0.5 0.5
314 1 0.575 0.54999 0.5
315 1 0.6 0.5 0.5
316 1 0.625 0.54999 0.5
317 1 0.65 0.5 0.5
318 1 0.675 0.54999 0.5
319 1 0.7 0.5 0.5
320 1 0.725 0.54999 0.5
321 1 0.75 0.5 0.5
322 1 0.775 0.54999 0.5
323 1 0.8 0.5 0.5
324 1 0.825 0.54999 0.5
325 1 0.85 0.5 0.5
326 1 0.875 0.54999 0.5
327 1 0.9 0.5 0.5
328 1 0.925 0.54999 0.5
329 1 0.95 0.5 0.5
330 1 0.975 0.54999 0.5
331 1 0.5 0.59998 0.5
333 1 0.55 0.59998 0.5
335 1 0.6 0.59998 0.5
337 1 0.65 0.59998 0.5
339 1 0.7 0.59998 0.5
341 1 0.75 0.59998 0.5
343 1 0.8 0.59998 0.5
345 1 0.85 0.59998 0.5
347 1 0.9 0.59998 0.5
349 1 0.95 0.59998 0.5
332 1 0.525 0.64997 0.5
351 1 0.5 0.69996 0.5
353 1 0.55 0.69996 0.5
334 1 0.575 0.64997 0.5
355 1 0.6 0.69996 0.5
336 1 0.625 0.64997 0.5
338 1 0.675 0.64997 0.5
357 1 0.65 0.69996 0.5
340 1 0.725 0.64997 0.5
359 1 0.7 0.69996 0.5
342 1 0.775 0.64997 0.5
361 1 0.75 0.69996 0.5
363 1 0.8 0.69996 0.5
344 1 0.825 0.64997 0.5
365 1 0.85 0.69996 0.5
346 1 0.875 0.64997 0.5
348 1 0.925 0.64997 0.5
367 1 0.9 0.69996 0.5
350 1 0.975 0.64997 0.5
369 1 0.95 0.69996 0.5
352 1 0.525 0.74995 0.5
354 1 0.575 0.74995 0.5
356 1 0.625 0.74995 0.5
358 1 0.675 0.74995 0.5
360 1 0.725 0.74995 0.5
362 1 0.775 0.74995 0.5
364 1 0.825 0.74995 0.5
366 1 0.875 0.74995 0.5
368 1 0.925 0.74995 0.5
370 1 0.975 0.74995 0.5
371 1 0.5 0.79994 0.5
372 1 0.525 0.84993 0.5
373 1 0.55 0.79994 0.5
374 1 0.575 0.84993 0.5
375 1 0.6 0.79994 0.5
376 1 0.625 0.84993 0.5
377 1 0.65 0.79994 0.5
378 1 0.675 0.84993 0.5
379 1 0.7 0.79994 0.5
380 1 0.725 0.84993 0.5
381 1 0.75 0.79994 0.5
382 1 0.775 0.84993 0.5
383 1 0.8 0.79994 0.5
384 1 0.825 0.84993 0.5
385 1 0.85 0.79994 0.5
386 1 0.875 0.84993 0.5
387 1 0.9 0.79994 0.5
388 1 0.925 0.84993 0.5
389 1 0.95 0.79994 0.5
390 1 0.975 0.84993 0.5
391 1 0.5 0.89992 0.5
393 1 0.55 0.89992 0.5
395 1 0.6 0.89992 0.5
397 1 0.65 0.89992 0.5
399 1 0.7 0.89992 0.5
401 1 0.75 0.89992 0.5
403 1 0.8 0.89992 0.5
405 1 0.85 0.89992 0.5
407 1 0.9 0.89992 0.5
409 1 0.95 0.89992 0.5
392 1 0.525 0.94991 0.5
411 1 0.5 0.9999 0.5
412 1 0.55 0.9999 0.5
394 1 0.575 0.94991 0.5
413 1 0.6 0.9999 0.5
396 1 0.625 0.94991 0.5
398 1 0.675 0.94991 0.5
414 1 0.65 0.9999 0.5
400 1 0.725 0.94991 0.5
415 1 0.7 0.9999 0.5
402 1 0.775 0.94991 0.5
416 1 0.75 0.9999 0.5
417 1 0.8 0.9999 0.5
404 1 0.825 0.94991 0.5
418 1 0.85 0.9999 0.5
406 1 0.875 0.94991 0.5
408 1 0.925 0.94991 0.5
419 1 0.9 0.9999 0.5
410 1 0.975 0.94991 0.5
420 1 0.95 0.9999 0.5
ITEM: TIMESTEP
250
ITEM: NUMBER OF ATOMS
420
ITEM: BOX BOUNDS pp ss pp
0.0000000000000000e+00 2.2653923264628304e+01
-1.9618873042551413e-03 2.0125886461836615e+01
-2.8317404080785380e-01 2.8317404080785380e-01
ITEM: ATOMS id type xs ys zs
1 2 0 9.74713e-05 0.5
2 2 0.025 0.0488331 0.5
3 2 0.05 9.74713e-05 0.5
4 2 0.075 0.0488331 0.5
5 2 0.1 9.74713e-05 0.5
6 2 0.125 0.0488331 0.5
7 2 0.15 9.74713e-05 0.5
8 2 0.175 0.0488331 0.5
9 2 0.2 9.74713e-05 0.5
10 2 0.225 0.0488331 0.5
11 2 0.25 9.74713e-05 0.5
12 2 0.275 0.0488331 0.5
13 2 0.3 9.74713e-05 0.5
14 2 0.325 0.0488331 0.5
15 2 0.35 9.74713e-05 0.5
16 2 0.375 0.0488331 0.5
17 2 0.4 9.74713e-05 0.5
18 2 0.425 0.0488331 0.5
19 2 0.45 9.74713e-05 0.5
20 2 0.475 0.0488331 0.5
21 2 0 0.0975688 0.5
23 2 0.05 0.0975688 0.5
25 2 0.1 0.0975688 0.5
27 2 0.15 0.0975688 0.5
29 2 0.2 0.0975688 0.5
31 2 0.25 0.0975688 0.5
33 2 0.3 0.0975688 0.5
35 2 0.35 0.0975688 0.5
37 2 0.4 0.0975688 0.5
39 2 0.45 0.0975688 0.5
22 1 0.0262403 0.14508 0.5
100 1 0.475372 0.434935 0.5
43 1 0.0535364 0.195133 0.5
24 1 0.0767088 0.148146 0.5
45 1 0.101856 0.191926 0.5
26 1 0.124274 0.145164 0.5
28 1 0.18081 0.142288 0.5
47 1 0.149563 0.1962 0.5
30 1 0.229845 0.148194 0.5
49 1 0.199166 0.195362 0.5
32 1 0.276854 0.148915 0.5
51 1 0.24877 0.198453 0.5
53 1 0.302659 0.196239 0.5
34 1 0.326889 0.143986 0.5
55 1 0.352199 0.192189 0.5
36 1 0.375553 0.141507 0.5
38 1 0.426718 0.141473 0.5
57 1 0.404627 0.188977 0.5
40 1 0.47749 0.147097 0.5
59 1 0.449501 0.189897 0.5
42 1 0.027703 0.242003 0.5
44 1 0.074893 0.240869 0.5
46 1 0.123092 0.242784 0.5
48 1 0.171647 0.242083 0.5
50 1 0.223786 0.245604 0.5
52 1 0.278503 0.240667 0.5
54 1 0.329838 0.242373 0.5
56 1 0.376199 0.239133 0.5
58 1 0.427792 0.239128 0.5
60 1 0.476281 0.241849 0.5
98 1 0.424751 0.436975 0.5
62 1 0.0264269 0.337725 0.5
63 1 0.0497015 0.289311 0.5
64 1 0.0771532 0.341267 0.5
65 1 0.101607 0.293014 0.5
66 1 0.12848 0.345336 0.5
67 1 0.150652 0.294261 0.5
68 1 0.174984 0.342894 0.5
69 1 0.200825 0.293085 0.5
70 1 0.227984 0.337943 0.5
71 1 0.254428 0.290555 0.5
72 1 0.277015 0.341803 0.5
73 1 0.30219 0.290897 0.5
74 1 0.327754 0.341895 0.5
75 1 0.353437 0.290149 0.5
76 1 0.37537 0.3362 0.5
77 1 0.400586 0.289714 0.5
78 1 0.422858 0.340576 0.5
79 1 0.449293 0.289164 0.5
80 1 0.473749 0.341422 0.5
96 1 0.370643 0.441841 0.5
83 1 0.0557612 0.38665 0.5
85 1 0.106805 0.391747 0.5
87 1 0.154574 0.396433 0.5
89 1 0.201867 0.388006 0.5
91 1 0.253443 0.392067 0.5
93 1 0.299351 0.391961 0.5
95 1 0.34941 0.391583 0.5
97 1 0.39512 0.388175 0.5
99 1 0.446744 0.391495 0.5
82 1 0.0274056 0.435227 0.5
84 1 0.0811889 0.437128 0.5
86 1 0.128159 0.446475 0.5
88 1 0.177615 0.444563 0.5
90 1 0.224607 0.434676 0.5
92 1 0.275463 0.443921 0.5
94 1 0.323464 0.439901 0.5
291 1 0.499155 0.389161 0.5
103 1 0.051428 0.484783 0.5
105 1 0.0990638 0.490724 0.5
107 1 0.151431 0.493121 0.5
109 1 0.200809 0.494708 0.5
113 1 0.297362 0.488017 0.5
115 1 0.348824 0.492003 0.5
117 1 0.399342 0.488307 0.5
119 1 0.448563 0.487356 0.5
81 1 0.0041754 0.384533 0.5
41 1 0.00152151 0.190487 0.5
111 1 0.249961 0.490209 0.5
101 1 0.00153887 0.484036 0.5
61 1 0.00498899 0.290792 0.5
188 1 0.168956 0.93575 0.5
102 1 0.0248939 0.532544 0.5
204 1 0.137241 0.98952 0.5
104 1 0.0724802 0.534255 0.5
196 1 0.374795 0.927594 0.5
106 1 0.122911 0.540386 0.5
208 1 0.346403 0.984858 0.5
108 1 0.176786 0.541953 0.5
194 1 0.32757 0.935291 0.5
110 1 0.22463 0.540987 0.5
331 1 0.495562 0.57728 0.5
112 1 0.272693 0.537425 0.5
207 1 0.296882 0.978989 0.5
114 1 0.324475 0.537824 0.5
206 1 0.24531 0.97859 0.5
116 1 0.375022 0.53304 0.5
192 1 0.271947 0.93067 0.5
118 1 0.424241 0.535325 0.5
205 1 0.194337 0.981069 0.5
120 1 0.474211 0.530888 0.5
210 1 0.448391 0.980855 0.5
123 1 0.0474345 0.58225 0.5
125 1 0.0989924 0.585801 0.5
127 1 0.151508 0.587519 0.5
129 1 0.199155 0.591469 0.5
131 1 0.248227 0.590235 0.5
133 1 0.297611 0.583064 0.5
135 1 0.349824 0.583987 0.5
137 1 0.398146 0.583511 0.5
139 1 0.446242 0.581496 0.5
122 1 0.021937 0.634932 0.5
200 1 0.481538 0.927953 0.5
143 1 0.0495916 0.684371 0.5
124 1 0.0754926 0.633595 0.5
145 1 0.0984148 0.685084 0.5
126 1 0.119863 0.636959 0.5
128 1 0.172364 0.637758 0.5
147 1 0.146865 0.687755 0.5
130 1 0.220318 0.640348 0.5
149 1 0.193581 0.685459 0.5
132 1 0.278545 0.635806 0.5
151 1 0.250853 0.684262 0.5
153 1 0.29976 0.688338 0.5
134 1 0.32585 0.633295 0.5
155 1 0.349876 0.684512 0.5
136 1 0.375859 0.634999 0.5
138 1 0.4252 0.634149 0.5
157 1 0.401652 0.681012 0.5
140 1 0.470754 0.627078 0.5
159 1 0.452809 0.678772 0.5
142 1 0.0236896 0.734845 0.5
144 1 0.0741969 0.733529 0.5
146 1 0.122168 0.736695 0.5
148 1 0.17151 0.740715 0.5
150 1 0.22413 0.729248 0.5
152 1 0.272774 0.736254 0.5
154 1 0.329164 0.737125 0.5
156 1 0.380355 0.732274 0.5
158 1 0.431122 0.726935 0.5
160 1 0.482109 0.727341 0.5
190 1 0.2204 0.929498 0.5
162 1 0.0217136 0.833934 0.5
163 1 0.0457482 0.780934 0.5
164 1 0.0720905 0.831216 0.5
165 1 0.094068 0.781718 0.5
166 1 0.12 0.836307 0.5
167 1 0.145024 0.786193 0.5
168 1 0.169833 0.836594 0.5
169 1 0.198941 0.787269 0.5
170 1 0.220611 0.837359 0.5
171 1 0.246465 0.783039 0.5
172 1 0.269128 0.835472 0.5
173 1 0.30332 0.784615 0.5
174 1 0.320302 0.833917 0.5
175 1 0.356524 0.785749 0.5
176 1 0.374053 0.83543 0.5
177 1 0.407575 0.778717 0.5
178 1 0.430279 0.826682 0.5
179 1 0.456217 0.778873 0.5
180 1 0.477748 0.829477 0.5
209 1 0.395747 0.972799 0.5
183 1 0.0453781 0.886985 0.5
185 1 0.0937336 0.883327 0.5
187 1 0.143267 0.881328 0.5
189 1 0.192918 0.885747 0.5
191 1 0.246191 0.884679 0.5
193 1 0.296393 0.883703 0.5
195 1 0.348875 0.883081 0.5
197 1 0.407331 0.878213 0.5
199 1 0.454011 0.877577 0.5
182 1 0.0190812 0.933729 0.5
198 1 0.424504 0.928979 0.5
202 1 0.0376924 0.983744 0.5
184 1 0.0666134 0.937294 0.5
203 1 0.084979 0.999286 0.5
186 1 0.116878 0.932556 0.5
211 2 0.5 9.74713e-05 0.5
212 2 0.525 0.0488331 0.5
213 2 0.55 9.74713e-05 0.5
214 2 0.575 0.0488331 0.5
215 2 0.6 9.74713e-05 0.5
216 2 0.625 0.0488331 0.5
217 2 0.65 9.74713e-05 0.5
218 2 0.675 0.0488331 0.5
219 2 0.7 9.74713e-05 0.5
220 2 0.725 0.0488331 0.5
221 2 0.75 9.74713e-05 0.5
222 2 0.775 0.0488331 0.5
223 2 0.8 9.74713e-05 0.5
224 2 0.825 0.0488331 0.5
225 2 0.85 9.74713e-05 0.5
226 2 0.875 0.0488331 0.5
227 2 0.9 9.74713e-05 0.5
228 2 0.925 0.0488331 0.5
229 2 0.95 9.74713e-05 0.5
230 2 0.975 0.0488331 0.5
231 2 0.5 0.0975688 0.5
233 2 0.55 0.0975688 0.5
235 2 0.6 0.0975688 0.5
237 2 0.65 0.0975688 0.5
239 2 0.7 0.0975688 0.5
241 2 0.75 0.0975688 0.5
243 2 0.8 0.0975688 0.5
245 2 0.85 0.0975688 0.5
247 2 0.9 0.0975688 0.5
249 2 0.95 0.0975688 0.5
232 1 0.528186 0.146331 0.5
251 1 0.502828 0.195442 0.5
253 1 0.552421 0.198091 0.5
234 1 0.578761 0.144785 0.5
255 1 0.602486 0.196772 0.5
236 1 0.624947 0.14322 0.5
238 1 0.674459 0.143942 0.5
257 1 0.650419 0.196596 0.5
240 1 0.725304 0.14341 0.5
259 1 0.700237 0.193292 0.5
242 1 0.772162 0.147579 0.5
261 1 0.747263 0.194425 0.5
263 1 0.795704 0.195275 0.5
244 1 0.821422 0.147017 0.5
265 1 0.844459 0.19559 0.5
246 1 0.870164 0.149503 0.5
248 1 0.922893 0.145201 0.5
267 1 0.895581 0.196122 0.5
250 1 0.973515 0.146496 0.5
269 1 0.947743 0.194518 0.5
252 1 0.523757 0.245126 0.5
254 1 0.576874 0.245319 0.5
256 1 0.626111 0.243682 0.5
258 1 0.675436 0.246787 0.5
260 1 0.722721 0.244619 0.5
262 1 0.770663 0.244544 0.5
264 1 0.820109 0.245312 0.5
266 1 0.87494 0.247559 0.5
268 1 0.924724 0.24425 0.5
270 1 0.974427 0.240582 0.5
271 1 0.502276 0.297546 0.5
272 1 0.526709 0.341712 0.5
273 1 0.552814 0.293919 0.5
274 1 0.57636 0.34362 0.5
275 1 0.602602 0.295713 0.5
276 1 0.628677 0.347021 0.5
277 1 0.651937 0.294403 0.5
278 1 0.67533 0.346689 0.5
279 1 0.700138 0.292301 0.5
280 1 0.725156 0.341805 0.5
281 1 0.749312 0.294381 0.5
282 1 0.778426 0.343769 0.5
283 1 0.797428 0.294166 0.5
284 1 0.824289 0.340447 0.5
285 1 0.845629 0.289744 0.5
286 1 0.877415 0.334708 0.5
287 1 0.905633 0.293492 0.5
288 1 0.931383 0.339942 0.5
289 1 0.954128 0.290053 0.5
290 1 0.978095 0.339308 0.5
323 1 0.801943 0.489966 0.5
293 1 0.551663 0.389443 0.5
295 1 0.603242 0.3941 0.5
297 1 0.652109 0.397259 0.5
299 1 0.704797 0.394649 0.5
301 1 0.753119 0.397958 0.5
303 1 0.79835 0.396209 0.5
305 1 0.846611 0.389062 0.5
307 1 0.898442 0.381763 0.5
309 1 0.95405 0.387379 0.5
292 1 0.526211 0.43641 0.5
294 1 0.576214 0.438822 0.5
296 1 0.624446 0.443502 0.5
298 1 0.676739 0.441066 0.5
300 1 0.728112 0.444112 0.5
302 1 0.780216 0.444038 0.5
304 1 0.82839 0.441894 0.5
306 1 0.874459 0.434275 0.5
308 1 0.926363 0.435952 0.5
310 1 0.97702 0.437814 0.5
317 1 0.651954 0.489835 0.5
327 1 0.903064 0.483112 0.5
329 1 0.950539 0.482417 0.5
325 1 0.851794 0.486553 0.5
313 1 0.548362 0.485807 0.5
315 1 0.6005 0.489076 0.5
321 1 0.751528 0.492638 0.5
319 1 0.701451 0.488968 0.5
311 1 0.500256 0.480612 0.5
201 1 0.989668 0.978995 0.5
312 1 0.519718 0.531099 0.5
181 1 0.99471 0.879853 0.5
314 1 0.570436 0.534922 0.5
418 1 0.847095 1.00029 0.5
316 1 0.626762 0.541209 0.5
417 1 0.798964 0.973963 0.5
318 1 0.677953 0.534224 0.5
416 1 0.752038 0.985225 0.5
320 1 0.72508 0.534974 0.5
121 1 0.999439 0.583284 0.5
322 1 0.77716 0.536859 0.5
419 1 0.895923 0.996778 0.5
324 1 0.825941 0.537034 0.5
408 1 0.916632 0.93282 0.5
326 1 0.877331 0.535185 0.5
161 1 0.997798 0.78295 0.5
328 1 0.927467 0.530777 0.5
406 1 0.870686 0.950364 0.5
330 1 0.977803 0.532593 0.5
404 1 0.824571 0.923034 0.5
333 1 0.541843 0.577678 0.5
335 1 0.596328 0.582392 0.5
337 1 0.650982 0.585961 0.5
339 1 0.701593 0.584157 0.5
341 1 0.75239 0.584537 0.5
343 1 0.800765 0.583822 0.5
345 1 0.852317 0.585654 0.5
347 1 0.89961 0.583452 0.5
349 1 0.951171 0.580767 0.5
332 1 0.525363 0.631446 0.5
420 1 0.941236 0.980322 0.5
353 1 0.552109 0.677333 0.5
334 1 0.573657 0.628835 0.5
355 1 0.601071 0.677815 0.5
336 1 0.619778 0.630985 0.5
338 1 0.679988 0.635388 0.5
357 1 0.650471 0.677103 0.5
340 1 0.727902 0.634593 0.5
359 1 0.70429 0.680468 0.5
342 1 0.77795 0.635971 0.5
361 1 0.753063 0.681087 0.5
363 1 0.801797 0.681579 0.5
344 1 0.825335 0.631116 0.5
365 1 0.851223 0.680112 0.5
346 1 0.873702 0.631606 0.5
348 1 0.924886 0.631897 0.5
367 1 0.901158 0.679387 0.5
350 1 0.974702 0.630927 0.5
369 1 0.949223 0.680907 0.5
352 1 0.530371 0.730821 0.5
354 1 0.577899 0.727839 0.5
356 1 0.625126 0.726602 0.5
358 1 0.674938 0.724538 0.5
360 1 0.730038 0.729007 0.5
362 1 0.7762 0.727623 0.5
364 1 0.826768 0.732424 0.5
366 1 0.873887 0.732687 0.5
368 1 0.923026 0.72689 0.5
370 1 0.971015 0.731174 0.5
371 1 0.505176 0.776646 0.5
372 1 0.527666 0.823776 0.5
373 1 0.553699 0.777678 0.5
374 1 0.576926 0.826701 0.5
375 1 0.601805 0.776313 0.5
376 1 0.626024 0.823386 0.5
377 1 0.65041 0.776541 0.5
378 1 0.67823 0.823621 0.5
379 1 0.700159 0.778082 0.5
380 1 0.72619 0.823517 0.5
381 1 0.750458 0.776509 0.5
382 1 0.774581 0.827876 0.5
383 1 0.802606 0.782948 0.5
384 1 0.825674 0.827215 0.5
385 1 0.850859 0.779372 0.5
386 1 0.873668 0.829526 0.5
387 1 0.901301 0.778579 0.5
388 1 0.922245 0.828055 0.5
389 1 0.950252 0.778274 0.5
390 1 0.970599 0.831096 0.5
391 1 0.50347 0.876774 0.5
393 1 0.55255 0.873108 0.5
395 1 0.603279 0.874692 0.5
397 1 0.652372 0.875798 0.5
399 1 0.700713 0.879568 0.5
401 1 0.750437 0.875129 0.5
403 1 0.803126 0.875074 0.5
405 1 0.850288 0.877966 0.5
407 1 0.89851 0.882301 0.5
409 1 0.946604 0.877771 0.5
392 1 0.531891 0.936412 0.5
410 1 0.965089 0.929642 0.5
412 1 0.56008 0.985284 0.5
394 1 0.578201 0.919576 0.5
413 1 0.603659 0.96496 0.5
396 1 0.628701 0.922987 0.5
398 1 0.679287 0.931445 0.5
414 1 0.649272 0.976673 0.5
400 1 0.728068 0.929137 0.5
415 1 0.702667 0.980988 0.5
402 1 0.775539 0.925106 0.5
351 1 0.50236 0.678134 0.5
411 1 0.50295 0.980362 0.5
141 1 0.996662 0.682773 0.5
ITEM: TIMESTEP
500
ITEM: NUMBER OF ATOMS
420
ITEM: BOX BOUNDS pp ss pp
0.0000000000000000e+00 2.2653923264628304e+01
-1.9618873042551413e-03 2.0009482551106764e+01
-2.8317404080785380e-01 2.8317404080785380e-01
ITEM: ATOMS id type xs ys zs
1 2 0 9.80383e-05 0.5
2 2 0.025 0.0491172 0.5
3 2 0.05 9.80383e-05 0.5
4 2 0.075 0.0491172 0.5
5 2 0.1 9.80383e-05 0.5
6 2 0.125 0.0491172 0.5
7 2 0.15 9.80383e-05 0.5
8 2 0.175 0.0491172 0.5
9 2 0.2 9.80383e-05 0.5
10 2 0.225 0.0491172 0.5
11 2 0.25 9.80383e-05 0.5
12 2 0.275 0.0491172 0.5
13 2 0.3 9.80383e-05 0.5
14 2 0.325 0.0491172 0.5
15 2 0.35 9.80383e-05 0.5
16 2 0.375 0.0491172 0.5
17 2 0.4 9.80383e-05 0.5
18 2 0.425 0.0491172 0.5
19 2 0.45 9.80383e-05 0.5
20 2 0.475 0.0491172 0.5
21 2 0 0.0981363 0.5
23 2 0.05 0.0981363 0.5
25 2 0.1 0.0981363 0.5
27 2 0.15 0.0981363 0.5
29 2 0.2 0.0981363 0.5
31 2 0.25 0.0981363 0.5
33 2 0.3 0.0981363 0.5
35 2 0.35 0.0981363 0.5
37 2 0.4 0.0981363 0.5
39 2 0.45 0.0981363 0.5
22 1 0.0249247 0.14998 0.5
100 1 0.47559 0.4445 0.5
43 1 0.0522662 0.198042 0.5
24 1 0.0787031 0.146627 0.5
45 1 0.10049 0.19446 0.5
26 1 0.124739 0.145464 0.5
28 1 0.17423 0.143987 0.5
47 1 0.150848 0.196551 0.5
30 1 0.226803 0.145037 0.5
49 1 0.199488 0.190687 0.5
32 1 0.274809 0.146384 0.5
51 1 0.25046 0.195095 0.5
53 1 0.297041 0.196893 0.5
34 1 0.324618 0.143609 0.5
55 1 0.347634 0.196578 0.5
36 1 0.373842 0.148905 0.5
38 1 0.423734 0.148579 0.5
57 1 0.396825 0.197069 0.5
40 1 0.472337 0.144907 0.5
59 1 0.448793 0.196466 0.5
42 1 0.0238584 0.245407 0.5
44 1 0.0770091 0.249483 0.5
46 1 0.12734 0.242723 0.5
48 1 0.176259 0.247239 0.5
50 1 0.223627 0.242385 0.5
52 1 0.275312 0.248726 0.5
54 1 0.32222 0.244534 0.5
56 1 0.372959 0.245498 0.5
58 1 0.42312 0.242854 0.5
60 1 0.470721 0.244469 0.5
98 1 0.426357 0.441854 0.5
62 1 0.024683 0.345143 0.5
63 1 0.0492193 0.299055 0.5
64 1 0.0746537 0.343671 0.5
65 1 0.0990269 0.296202 0.5
66 1 0.124771 0.345704 0.5
67 1 0.151139 0.294888 0.5
68 1 0.172869 0.341754 0.5
69 1 0.201261 0.29481 0.5
70 1 0.227111 0.345279 0.5
71 1 0.24922 0.295562 0.5
72 1 0.273755 0.344922 0.5
73 1 0.296857 0.29695 0.5
74 1 0.321953 0.345439 0.5
75 1 0.349063 0.292353 0.5
76 1 0.373847 0.342611 0.5
77 1 0.401523 0.295845 0.5
78 1 0.422929 0.34623 0.5
79 1 0.450312 0.294777 0.5
80 1 0.475049 0.343684 0.5
96 1 0.377026 0.440603 0.5
83 1 0.0507566 0.391029 0.5
85 1 0.0991602 0.393387 0.5
87 1 0.151005 0.393253 0.5
89 1 0.200042 0.393867 0.5
91 1 0.253229 0.392844 0.5
93 1 0.301805 0.394436 0.5
95 1 0.351925 0.390801 0.5
97 1 0.400844 0.39331 0.5
99 1 0.450192 0.395005 0.5
82 1 0.0274268 0.441536 0.5
84 1 0.076005 0.440541 0.5
86 1 0.122504 0.443409 0.5
88 1 0.171714 0.440969 0.5
90 1 0.224712 0.441217 0.5
92 1 0.276426 0.441661 0.5
94 1 0.328514 0.439561 0.5
41 1 0.00225763 0.197508 0.5
103 1 0.0532967 0.488442 0.5
105 1 0.100726 0.49304 0.5
107 1 0.150981 0.491215 0.5
109 1 0.201237 0.491362 0.5
113 1 0.302078 0.490498 0.5
115 1 0.351804 0.488972 0.5
117 1 0.401893 0.491375 0.5
119 1 0.451972 0.49653 0.5
81 1 0.0026016 0.394484 0.5
251 1 0.497035 0.196151 0.5
111 1 0.249523 0.488751 0.5
101 1 0.00262048 0.493898 0.5
311 1 0.499198 0.492642 0.5
291 1 0.49782 0.392249 0.5
188 1 0.17437 0.941939 0.5
102 1 0.0252617 0.539758 0.5
204 1 0.149261 0.990343 0.5
104 1 0.0750994 0.541427 0.5
196 1 0.373045 0.93422 0.5
106 1 0.12455 0.541763 0.5
208 1 0.347209 0.986075 0.5
108 1 0.1749 0.539637 0.5
194 1 0.324704 0.936245 0.5
110 1 0.223703 0.542987 0.5
141 1 0.00285159 0.691359 0.5
112 1 0.2761 0.536013 0.5
207 1 0.295045 0.984639 0.5
114 1 0.32595 0.541639 0.5
206 1 0.246451 0.986931 0.5
116 1 0.3751 0.539202 0.5
192 1 0.274028 0.936584 0.5
118 1 0.427981 0.542372 0.5
205 1 0.199421 0.993189 0.5
120 1 0.478043 0.544003 0.5
210 1 0.449142 0.980966 0.5
123 1 0.0521952 0.588093 0.5
125 1 0.102776 0.590681 0.5
127 1 0.150345 0.58846 0.5
129 1 0.199094 0.589935 0.5
131 1 0.251577 0.589172 0.5
133 1 0.300611 0.588459 0.5
135 1 0.348768 0.591252 0.5
137 1 0.402084 0.589216 0.5
139 1 0.449715 0.59154 0.5
122 1 0.0263409 0.645068 0.5
200 1 0.474872 0.933794 0.5
143 1 0.0541533 0.691369 0.5
124 1 0.0795174 0.6371 0.5
145 1 0.100805 0.688887 0.5
126 1 0.130467 0.640991 0.5
128 1 0.177115 0.638623 0.5
147 1 0.152153 0.693497 0.5
130 1 0.224269 0.63967 0.5
149 1 0.199707 0.688706 0.5
132 1 0.274902 0.63887 0.5
151 1 0.24938 0.686875 0.5
153 1 0.300529 0.691783 0.5
134 1 0.322875 0.642382 0.5
155 1 0.349783 0.691246 0.5
136 1 0.372905 0.63708 0.5
138 1 0.424222 0.639433 0.5
157 1 0.397444 0.692281 0.5
140 1 0.475733 0.64039 0.5
159 1 0.447939 0.692057 0.5
142 1 0.0266018 0.740338 0.5
144 1 0.0752637 0.740613 0.5
146 1 0.127021 0.740991 0.5
148 1 0.175136 0.742681 0.5
150 1 0.224691 0.741574 0.5
152 1 0.273131 0.73743 0.5
154 1 0.323335 0.744269 0.5
156 1 0.372457 0.740084 0.5
158 1 0.422837 0.739898 0.5
160 1 0.472791 0.742019 0.5
190 1 0.224501 0.937491 0.5
162 1 0.022285 0.837579 0.5
163 1 0.0503039 0.787559 0.5
164 1 0.0729693 0.8393 0.5
165 1 0.10027 0.790529 0.5
166 1 0.124739 0.838468 0.5
167 1 0.148607 0.792714 0.5
168 1 0.173688 0.840919 0.5
169 1 0.198984 0.789787 0.5
170 1 0.223337 0.841144 0.5
171 1 0.246863 0.790692 0.5
172 1 0.273852 0.839926 0.5
173 1 0.29988 0.792196 0.5
174 1 0.323129 0.839389 0.5
175 1 0.350211 0.791058 0.5
176 1 0.371813 0.839635 0.5
177 1 0.399952 0.790275 0.5
178 1 0.422506 0.837459 0.5
179 1 0.446588 0.790549 0.5
180 1 0.471039 0.838243 0.5
209 1 0.401198 0.984805 0.5
183 1 0.0480132 0.891874 0.5
185 1 0.0994031 0.890188 0.5
187 1 0.149677 0.888945 0.5
189 1 0.197118 0.893243 0.5
191 1 0.248153 0.890441 0.5
193 1 0.299795 0.888929 0.5
195 1 0.350075 0.887341 0.5
197 1 0.398332 0.884349 0.5
199 1 0.446951 0.886152 0.5
182 1 0.0202875 0.938124 0.5
198 1 0.420928 0.933708 0.5
202 1 0.0442295 0.985643 0.5
184 1 0.071325 0.9397 0.5
203 1 0.096756 0.989607 0.5
186 1 0.123858 0.942201 0.5
391 1 0.496144 0.883056 0.5
351 1 0.498562 0.688564 0.5
121 1 0.00469658 0.593675 0.5
371 1 0.496514 0.789335 0.5
211 2 0.5 9.80383e-05 0.5
212 2 0.525 0.0491172 0.5
213 2 0.55 9.80383e-05 0.5
214 2 0.575 0.0491172 0.5
215 2 0.6 9.80383e-05 0.5
216 2 0.625 0.0491172 0.5
217 2 0.65 9.80383e-05 0.5
218 2 0.675 0.0491172 0.5
219 2 0.7 9.80383e-05 0.5
220 2 0.725 0.0491172 0.5
221 2 0.75 9.80383e-05 0.5
222 2 0.775 0.0491172 0.5
223 2 0.8 9.80383e-05 0.5
224 2 0.825 0.0491172 0.5
225 2 0.85 9.80383e-05 0.5
226 2 0.875 0.0491172 0.5
227 2 0.9 9.80383e-05 0.5
228 2 0.925 0.0491172 0.5
229 2 0.95 9.80383e-05 0.5
230 2 0.975 0.0491172 0.5
231 2 0.5 0.0981363 0.5
233 2 0.55 0.0981363 0.5
235 2 0.6 0.0981363 0.5
237 2 0.65 0.0981363 0.5
239 2 0.7 0.0981363 0.5
241 2 0.75 0.0981363 0.5
243 2 0.8 0.0981363 0.5
245 2 0.85 0.0981363 0.5
247 2 0.9 0.0981363 0.5
249 2 0.95 0.0981363 0.5
232 1 0.52301 0.145406 0.5
321 1 0.750489 0.484041 0.5
253 1 0.548338 0.195848 0.5
234 1 0.573894 0.147421 0.5
255 1 0.602512 0.193061 0.5
236 1 0.62601 0.146961 0.5
238 1 0.677789 0.14558 0.5
257 1 0.652602 0.193999 0.5
240 1 0.728671 0.146176 0.5
259 1 0.704396 0.197305 0.5
242 1 0.777335 0.145157 0.5
261 1 0.753192 0.19437 0.5
263 1 0.801317 0.193854 0.5
244 1 0.825869 0.145999 0.5
265 1 0.851823 0.194095 0.5
246 1 0.874347 0.145181 0.5
248 1 0.924996 0.146549 0.5
267 1 0.902286 0.195364 0.5
250 1 0.976312 0.147691 0.5
269 1 0.952215 0.195657 0.5
252 1 0.525411 0.242678 0.5
254 1 0.575532 0.240344 0.5
256 1 0.62372 0.240924 0.5
258 1 0.674735 0.241798 0.5
260 1 0.727956 0.243621 0.5
262 1 0.77918 0.241926 0.5
264 1 0.828089 0.242097 0.5
266 1 0.876228 0.245476 0.5
268 1 0.924391 0.244418 0.5
270 1 0.976691 0.244177 0.5
319 1 0.700157 0.488099 0.5
272 1 0.525152 0.343248 0.5
273 1 0.548714 0.293155 0.5
274 1 0.57441 0.341839 0.5
275 1 0.597089 0.289979 0.5
276 1 0.622711 0.339472 0.5
277 1 0.648734 0.294146 0.5
278 1 0.672638 0.344208 0.5
279 1 0.697321 0.291629 0.5
280 1 0.72648 0.340839 0.5
281 1 0.75529 0.288741 0.5
282 1 0.775087 0.341513 0.5
283 1 0.802503 0.291881 0.5
284 1 0.82778 0.341171 0.5
285 1 0.851978 0.29163 0.5
286 1 0.876478 0.341847 0.5
287 1 0.900833 0.294932 0.5
288 1 0.924815 0.342824 0.5
289 1 0.951129 0.295266 0.5
290 1 0.976563 0.348558 0.5
323 1 0.801042 0.490237 0.5
293 1 0.546262 0.390925 0.5
295 1 0.596314 0.391039 0.5
297 1 0.642982 0.386776 0.5
299 1 0.699404 0.385427 0.5
301 1 0.748946 0.387934 0.5
303 1 0.804014 0.389961 0.5
305 1 0.853745 0.392005 0.5
307 1 0.900077 0.390181 0.5
309 1 0.953001 0.396269 0.5
292 1 0.524135 0.439486 0.5
294 1 0.573653 0.441588 0.5