LAMMPS (29 Sep 2021 - Update 2)
Reading data file ...
  orthogonal box = (0.0000000 0.0000000 -0.10000000) to (35.856860 35.856860 0.10000000)
  2 by 2 by 1 MPI processor grid
  reading atoms ...
  1200 atoms
  scanning bonds ...
  1 = max bonds/atom
  reading bonds ...
  300 bonds
Finding 1-2 1-3 1-4 neighbors ...
  special bond factors lj:    0        0        0       
  special bond factors coul:  0        0        0       
     2 = max # of 1-2 neighbors
     1 = max # of 1-3 neighbors
     1 = max # of 1-4 neighbors
     2 = max # of special neighbors
  special bonds CPU = 0.000 seconds
  read_data CPU = 0.026 seconds
Finding 1-2 1-3 1-4 neighbors ...
  special bond factors lj:    0        1        1       
  special bond factors coul:  0        1        1       
     2 = max # of 1-2 neighbors
     2 = max # of special neighbors
  special bonds CPU = 0.000 seconds
Neighbor list info ...
  update every 1 steps, delay 5 steps, check yes
  max neighbors/atom: 2000, page size: 100000
  master list distance cutoff = 1.42246
  ghost atom cutoff = 1.42246
  binsize = 0.71123, bins = 51 51 1
  1 neighbor lists, perpetual/occasional/extra = 1 0 0
  (1) pair soft, perpetual
      attributes: half, newton on
      pair build: half/bin/newton
      stencil: half/bin/2d
      bin: standard
Setting up Verlet run ...
  Unit style    : lj
  Current step  : 0
  Time step     : 0.005
WARNING: Communication cutoff 1.42246 is shorter than a bond length based estimate of 1.425. This may lead to errors. (../comm.cpp:730)
Per MPI rank memory allocation (min/avg/max) = 4.126 | 4.126 | 4.127 Mbytes
Step Temp E_pair E_mol TotEng Press 
       0         0.45   0.40003481 2.2200223e-06   0.84966203   0.78952518 
      50   0.47411013   0.67721272  0.057404514    1.2083323    1.3375852 
     100         0.45   0.73046745  0.054836584     1.234929    2.3196516 
     150   0.67521742   0.72402001  0.043490075    1.4421648    2.8744416 
     200         0.45   0.78481891  0.076931503    1.3113754    3.0412388 
     250   0.66479018   0.69790602  0.081075564    1.4432178    3.6917024 
     300         0.45   0.76820218  0.066727591    1.2845548    3.7861054 
     350   0.67619136     0.625715  0.072722727    1.3740656    4.2861621 
     400         0.45   0.68527759  0.090724527    1.2256271    4.4725214 
     450   0.56702844   0.64402767  0.080555563    1.2911391    4.7402211 
     500         0.45   0.64883009  0.078376672    1.1768318    4.7919294 
     550     0.564664   0.58260368  0.080779475    1.2275766    4.9855705 
     600         0.45   0.58193041  0.088386617     1.119942     5.131481 
     650   0.52110993    0.5415273  0.097683746    1.1598867    5.2500294 
     700         0.45   0.50856787  0.088471208    1.0466641    5.2550165 
     750   0.51510855   0.47441291  0.089429375    1.0785216     5.375763 
     800         0.45   0.49926696  0.085958476    1.0348504    5.4665914 
     850   0.50688494   0.46614429  0.088962292    1.0615691     5.556932 
     900         0.45   0.47785593   0.10150857    1.0289895    5.7765975 
     950   0.49590559   0.46050477  0.096404887     1.052402    5.8649245 
    1000         0.45   0.47691182   0.08808163    1.0146185    6.0177568 
Loop time of 0.0522035 on 4 procs for 1000 steps with 1200 atoms

Performance: 8275305.785 tau/day, 19155.800 timesteps/s
99.2% CPU use with 4 MPI tasks x no OpenMP threads

MPI task timing breakdown:
Section |  min time  |  avg time  |  max time  |%varavg| %total
---------------------------------------------------------------
Pair    | 0.027072   | 0.027807   | 0.028777   |   0.4 | 53.27
Bond    | 0.0016613  | 0.001758   | 0.0018586  |   0.2 |  3.37
Neigh   | 0.005802   | 0.0058298  | 0.0058539  |   0.0 | 11.17
Comm    | 0.0069603  | 0.0081266  | 0.0089292  |   0.8 | 15.57
Output  | 0.0002196  | 0.00023061 | 0.00025139 |   0.0 |  0.44
Modify  | 0.0063003  | 0.0063625  | 0.0064882  |   0.1 | 12.19
Other   |            | 0.002089   |            |       |  4.00

Nlocal:        300.000 ave         305 max         292 min
Histogram: 1 0 0 0 0 0 1 0 1 1
Nghost:        100.250 ave         108 max          93 min
Histogram: 1 0 1 0 0 0 1 0 0 1
Neighs:        784.000 ave         815 max         739 min
Histogram: 1 0 0 0 0 0 1 1 0 1

Total # of neighbors = 3136
Ave neighs/atom = 2.6133333
Ave special neighs/atom = 0.50000000
Neighbor list builds = 92
Dangerous builds = 0
Neighbor list info ...
  update every 1 steps, delay 5 steps, check yes
  max neighbors/atom: 2000, page size: 100000
  master list distance cutoff = 2.8
  ghost atom cutoff = 2.8
  binsize = 1.4, bins = 26 26 1
  1 neighbor lists, perpetual/occasional/extra = 1 0 0
  (1) pair lj/cut, perpetual
      attributes: half, newton on
      pair build: half/bin/newton
      stencil: half/bin/2d
      bin: standard
Setting up Verlet run ...
  Unit style    : lj
  Current step  : 0
  Time step     : 0.005
Per MPI rank memory allocation (min/avg/max) = 5.136 | 5.136 | 5.137 Mbytes
Step Temp E_pair E_mol TotEng Press 
       0         0.45   -2.0467395   0.08808163   -1.5090329    4.5877774 
      50   0.65922402   -2.2163797  0.085252377   -1.4724527    3.5248947 
     100         0.45    -2.228681   0.11347814   -1.6655779    3.1269219 
     150    0.5470964   -2.3239373  0.085377011   -1.6919198     2.582637 
     200         0.45   -2.3002334  0.090774682   -1.7598337    2.5292872 
     250   0.50132299    -2.360674   0.08550718   -1.7742616    2.2938803 
     300         0.45   -2.3551677  0.074148979   -1.8313938    2.2468209 
     350   0.47678034   -2.3672143  0.080283726   -1.8105475    2.1143547 
     400         0.45   -2.3579733  0.070367515   -1.8379808    2.0563513 
     450    0.4891335   -2.3830827  0.069939805   -1.8244171    1.8712647 
     500         0.45   -2.3934323  0.077577762   -1.8662295    1.8480974 
     550   0.46118742   -2.3811297  0.065743127   -1.8545835    1.9082908 
     600   0.46431929    -2.401098  0.071344988   -1.8658206    1.9027208 
     650   0.47924679   -2.4183546  0.067890012   -1.8716172    1.7990592 
     700   0.46776416   -2.4019009  0.081733962   -1.8527926     1.814818 
     750   0.48777855   -2.4021033  0.061949306   -1.8527819     1.993105 
     800         0.45   -2.4030131  0.066360251   -1.8870279    1.8896297 
     850    0.4785634   -2.4344325  0.068952057   -1.8873159    1.6400186 
     900         0.45   -2.4199799  0.062969135   -1.9073858    1.6381147 
     950   0.44067567     -2.40299  0.067473774   -1.8952078    1.6992247 
    1000         0.45   -2.4420866  0.057176827   -1.9352848    1.4086955 
    1050   0.44399286   -2.4249878  0.069202936    -1.912162    1.4607573 
    1100   0.46093897   -2.4356917  0.057893224   -1.9172436     1.669697 
    1150   0.45505383   -2.4382709  0.068484651   -1.9151116    1.5922113 
    1200   0.44477719   -2.4149469  0.065246064   -1.9052943    1.7263433 
    1250   0.46344759   -2.4461333  0.058493889    -1.924578    1.5801137 
    1300         0.45   -2.4417519  0.066832598   -1.9252943     1.535159 
    1350   0.44125536   -2.4419046   0.06561036   -1.9354066    1.5686382 
    1400   0.45167481   -2.4604344  0.065606607   -1.9435294    1.4512089 
    1450    0.4460101   -2.4346755   0.06681371   -1.9222233    1.5359764 
    1500   0.43796977   -2.4449039  0.066697958   -1.9406012     1.502721 
    1550   0.43347815   -2.4387757  0.064657778    -1.941001    1.6066644 
    1600   0.45366292   -2.4480418  0.060302747   -1.9344542      1.51594 
    1650   0.46183286   -2.4588941  0.067117929   -1.9303282    1.3237792 
    1700    0.4487547   -2.4453133  0.064230306   -1.9327023    1.4922768 
    1750   0.44736453   -2.4475363  0.062191975   -1.9383526    1.6235341 
    1800   0.46970868   -2.4721256  0.063746111   -1.9390623     1.287812 
    1850   0.44571929     -2.42959  0.062188235   -1.9220539    1.5014367 
    1900   0.45962277   -2.4529128  0.059825344   -1.9338477    1.3320225 
    1950    0.4581464   -2.4529759  0.065229439   -1.9299819    1.3422566 
    2000   0.45322848   -2.4447534  0.064245785   -1.9276568    1.4117935 
    2050   0.43907752   -2.4386348  0.066347122   -1.9335761    1.6237365 
    2100   0.45542648   -2.4394918  0.066997608   -1.9174472    1.4498048 
    2150   0.46388393   -2.4592084  0.056570461   -1.9391406     1.513697 
    2200   0.44659632    -2.437906  0.073335896    -1.918346    1.4329493 
    2250   0.44217151   -2.4342838  0.063691886   -1.9287889    1.4440019 
    2300   0.46356455   -2.4577947  0.065394095   -1.9292224    1.3220461 
    2350   0.45066558     -2.43259  0.066045352   -1.9162546    1.4845101 
    2400         0.45    -2.465707  0.063012685   -1.9530694      1.22448 
    2450   0.45029189   -2.4525077  0.062246058    -1.940345     1.316679 
    2500   0.46779726   -2.4715769  0.060243394   -1.9439261    1.1865103 
    2550   0.45557922   -2.4645765  0.066738914   -1.9426381    1.2427462 
    2600   0.46045934   -2.4424512  0.057026032   -1.9253495    1.4235337 
    2650    0.4638359   -2.4948595  0.065942595   -1.9654675    1.0787931 
    2700   0.44321657   -2.4657886  0.064196542   -1.9587449    1.2242895 
    2750   0.45389058   -2.4537748  0.065045982   -1.9352165    1.3257031 
    2800   0.46128607   -2.4655269  0.063830103   -1.9407951    1.1913304 
    2850   0.45844439   -2.4510882  0.057414548   -1.9356113    1.3493822 
    2900   0.45942521   -2.4605953  0.067076737   -1.9344762    1.2772803 
    2950   0.46548554   -2.4691328  0.054838556   -1.9491966    1.2536514 
    3000   0.45683461   -2.4535021  0.063739436   -1.9333087    1.3181011 
    3050   0.46000654   -2.4471314  0.061952669   -1.9255556    1.3128106 
    3100    0.4549914   -2.4545993  0.066197358   -1.9337897    1.2656598 
    3150   0.45464297   -2.4603696  0.068763936   -1.9373416    1.2670298 
    3200         0.45   -2.4775218  0.070369142   -1.9575276    1.1795804 
    3250   0.45513075   -2.4640353  0.059194652   -1.9500891    1.2539447 
    3300   0.46763558    -2.481745  0.068875053   -1.9456241    1.1989732 
    3350   0.45343896   -2.4591429  0.069683579   -1.9363983    1.3000575 
    3400   0.46298854     -2.48714  0.066629538   -1.9579077    1.1479032 
    3450   0.45229897    -2.480627  0.082563599   -1.9461414    1.2171108 
    3500   0.46196116   -2.4884069  0.067269833   -1.9595608    1.1480956 
    3550    0.4551564   -2.4755491  0.077034832   -1.9437371    1.2337334 
    3600   0.46514848   -2.4718138   0.06751367   -1.9395393     1.181256 
    3650   0.46041161   -2.4870764  0.069391204   -1.9576573    1.1697919 
    3700   0.45676543   -2.4819461  0.071035784   -1.9545255    1.1360329 
    3750   0.44958278   -2.4620577  0.065521562    -1.947328      1.23563 
    3800   0.44529679   -2.4452531  0.063390356    -1.936937    1.2221874 
    3850   0.46254702   -2.4613041  0.062360935   -1.9367816    1.2422854 
    3900         0.45   -2.4749045  0.072372833   -1.9529067    1.1345506 
    3950   0.45322654   -2.4792124  0.062914707   -1.9634488    1.1549928 
    4000   0.45560557   -2.5025754  0.077237617   -1.9701119   0.95134007 
    4050   0.44801454   -2.4692073  0.062283364   -1.9592827    1.0744188 
    4100   0.44320064     -2.47898  0.076502946   -1.9596457    1.1267169 
    4150   0.44157057   -2.4774919  0.071100548   -1.9651888    1.0597838 
    4200   0.45098984   -2.4922693  0.071288911   -1.9703664    1.0771078 
    4250   0.44221096    -2.456057  0.066680758   -1.9475338    1.1475229 
    4300   0.45534666   -2.4828544  0.066825492   -1.9610617     1.184905 
    4350   0.45906901   -2.4789706  0.056906405   -1.9633777    1.2495609 
    4400   0.45851044   -2.4816082  0.060060767    -1.963419     1.113862 
    4450   0.45765993   -2.4834281  0.057410913   -1.9687386    1.2043047 
    4500   0.44921136   -2.4628008  0.066077463   -1.9478863    1.2357489 
    4550   0.45830804   -2.4844638  0.068553586   -1.9579841    1.1102078 
    4600   0.45909889   -2.4803856  0.061027222   -1.9606421     1.156672 
    4650   0.45529139   -2.4788928  0.060253855    -1.963727    1.1223529 
    4700   0.44708887   -2.4770486   0.07355651   -1.9567758    1.0831942 
    4750   0.45248562   -2.4922343  0.065323885   -1.9748019   0.98665947 
    4800   0.46159897   -2.4772195  0.059939707   -1.9560655   0.97942435 
    4850   0.44700718   -2.4568278  0.063905727   -1.9462874    1.2172652 
    4900   0.45832219   -2.4759467  0.063162223   -1.9548442   0.96395301 
    4950   0.44799692   -2.4628175  0.062584894    -1.952609    1.1775965 
    5000   0.45736304   -2.4723575  0.059833936   -1.9555416    1.1807003 
    5050   0.45538445   -2.4794365  0.064896933   -1.9595346    1.1621567 
    5100   0.44773393   -2.4440912  0.054432442   -1.9422979    1.3404522 
    5150    0.4547873    -2.470907   0.05451767    -1.961981    1.2494123 
    5200   0.44757283   -2.4546384  0.064166643   -1.9432719    1.3241664 
    5250   0.46326861   -2.4808232  0.069592297   -1.9483483    1.1125303 
    5300   0.46969256   -2.4807466  0.065029906   -1.9464156     1.157697 
    5350   0.46978547   -2.4775306  0.055314425   -1.9528222    1.1200177 
    5400   0.46081569   -2.4780353  0.061451367   -1.9561523    1.2160269 
    5450   0.44860851   -2.4633065  0.069403407   -1.9456684    1.1932594 
    5500   0.45936388   -2.4766374   0.06473627   -1.9529201     1.156135 
    5550   0.45699781   -2.4797817  0.060676879   -1.9624879    1.1246287 
    5600   0.46089608   -2.4773567  0.068645411   -1.9481993    1.2040561 
    5650   0.46084376   -2.4805839  0.063155453   -1.9569687    1.0748226 
    5700     0.465161   -2.4803296  0.063435835   -1.9521204    1.0803379 
    5750   0.45972399   -2.4787865  0.065345942   -1.9540997    1.1129109 
    5800   0.46219376   -2.4658235  0.063442016   -1.9405729    1.2605721 
    5850   0.46106587   -2.4744439  0.073152654   -1.9406096    1.3132767 
    5900   0.46738543      -2.4904  0.067840284   -1.9555637    1.1832853 
    5950   0.48402874   -2.5006255  0.063785053   -1.9532151     1.159047 
    6000         0.45   -2.4678419  0.061355358   -1.9568616    1.1099809 
    6050   0.43192999   -2.4771675  0.067749308   -1.9778482   0.98617865 
    6100    0.4489993   -2.5049733  0.070865722   -1.9854824   0.98419126 
    6150     0.449129   -2.4813426  0.057474598   -1.9751133    1.0883909 
    6200   0.44700472   -2.4842257   0.06202267   -1.9755709    1.0689678 
    6250   0.46326698   -2.4890428  0.051913614   -1.9742483    1.0646899 
    6300    0.4645537   -2.5078356  0.067829733   -1.9758393   0.90590815 
    6350   0.44577447   -2.4894227  0.066548152   -1.9774716    1.2117465 
    6400         0.45    -2.502007  0.065330488   -1.9870515    1.0869454 
    6450   0.45115888   -2.4985653  0.059476575   -1.9883058   0.91009192 
    6500   0.44303783   -2.5009485  0.055782191   -2.0024977   0.99805424 
    6550   0.45801522   -2.4998583   0.06160429   -1.9806204   0.79212381 
    6600   0.44450559   -2.4989796  0.065491114   -1.9893533     1.004794 
    6650   0.44213488   -2.4940464  0.066157612   -1.9861223    1.0103782 
    6700   0.44456669   -2.5078343  0.064235107    -1.999403   0.97255205 
    6750   0.45158483   -2.4885176   0.06169403    -1.975615   0.92083906 
    6800   0.45171362   -2.5021454  0.062308015   -1.9885002   0.94557443 
    6850   0.44438538   -2.5163136  0.063843217   -2.0084553   0.86268651 
    6900   0.44080562   -2.4925781  0.062811805    -1.989328   0.98544806 
    6950   0.45349781   -2.5064063  0.059621306   -1.9936651   0.83961764 
    7000   0.45287076   -2.4933499  0.059542841   -1.9813136    1.0196051 
    7050   0.44765558   -2.4951603  0.065367111   -1.9825107   0.85890455 
    7100   0.43132596   -2.4895742  0.068818915   -1.9897888   0.89796382 
    7150   0.44094484    -2.464417   0.06011685   -1.9637228    1.0106498 
    7200   0.44922843    -2.511638  0.066178396   -1.9966055   0.77899358 
    7250   0.45277479   -2.4914055  0.051502505   -1.9875056   0.96334899 
    7300    0.4639185   -2.5012941  0.057119689   -1.9806425   0.80678624 
    7350    0.4511968   -2.4987568  0.064969988    -1.982966   0.97204845 
    7400    0.4503319   -2.5061762   0.06716915   -1.9890504   0.87053125 
    7450   0.43593584   -2.5027707  0.076820743   -1.9903774   0.87976169 
    7500   0.45452739   -2.4926395  0.062291066   -1.9761998   0.94926784 
    7550   0.44486776   -2.4916456  0.065839246   -1.9813093    1.0722049 
    7600   0.45521327   -2.4978108  0.064845757   -1.9781311   0.95968268 
    7650   0.46074111   -2.5075137  0.062814464    -1.984342   0.96833275 
    7700   0.44057422   -2.4783364  0.064908864   -1.9732204    1.0904595 
    7750   0.46592602   -2.5037808  0.054759617   -1.9834834   0.96136367 
    7800   0.44345011   -2.4881258  0.059876485   -1.9851687    1.1647889 
    7850   0.43846885    -2.498397  0.064702605   -1.9955909    1.0187283 
    7900   0.43623889   -2.4712639  0.066732566    -1.968656    1.0189744 
    7950    0.4314924   -2.4862417  0.070371261   -1.9847376    1.0365503 
    8000   0.45340337   -2.5099348  0.064766246    -1.992143   0.99123959 
    8050   0.45139894   -2.5000385  0.064980895   -1.9840348    1.0161825 
    8100   0.45826569    -2.502984  0.057661552   -1.9874387   0.96164043 
    8150   0.43543592   -2.5003115  0.060756259   -2.0044822    1.1055494 
    8200    0.4637251   -2.5020503    0.0523828   -1.9863288   0.91803619 
    8250   0.47028827   -2.5207576  0.057515799   -1.9933454    1.0649617 
    8300   0.46715638    -2.516591  0.053647503   -1.9961764    1.0258089 
    8350   0.43812518   -2.4928092  0.059710738   -1.9953384    1.2166369 
    8400   0.45596385      -2.4985  0.059819575   -1.9830966   0.99477648 
    8450   0.47316619   -2.5074322  0.059825479   -1.9748348   0.85961948 
    8500   0.46444363   -2.5069025  0.060220186   -1.9826258   0.97386281 
    8550   0.46311353   -2.4920905  0.053138424   -1.9762245    1.1173784 
    8600   0.45152498   -2.4962257  0.069289962    -1.975787    1.1202818 
    8650   0.44381825   -2.4999026  0.068921002   -1.9875332    1.1173114 
    8700         0.45   -2.5189952  0.066588812   -2.0027814    0.9500336 
    8750    0.4499905   -2.5214616  0.066090013   -2.0057561   0.88412752 
    8800     0.456271   -2.5373745  0.065103544   -2.0163802   0.86750184 
    8850   0.46636288   -2.5286793  0.068620779   -1.9940843   0.84849719 
    8900   0.43613829   -2.5125627  0.069246491   -2.0075414   0.97298642 
    8950   0.44242647   -2.5157671  0.064859235   -2.0088501   0.95060594 
    9000   0.46327803   -2.5381337   0.06448024   -2.0107615    0.7954798 
    9050   0.44715034   -2.5171584  0.068159594   -2.0022211   0.95140849 
    9100   0.43390478   -2.4978974  0.063743037   -2.0006111    1.1150761 
    9150   0.45533091   -2.5197941  0.061524693    -2.003318   0.95979903 
    9200   0.45193932   -2.5058763  0.060765744   -1.9935479   0.98590868 
    9250   0.46241382   -2.5325153  0.059376001   -2.0111108    0.8696237 
    9300   0.45394328   -2.5213128  0.064509274   -2.0032386   0.84081469 
    9350   0.45413179   -2.5315172  0.068468969   -2.0092949   0.87686704 
    9400   0.44781285   -2.5245146  0.059613455   -2.0174615   0.98798005 
    9450   0.45368201   -2.5193141  0.059528277   -2.0064819   0.97382158 
    9500   0.44868449    -2.532741  0.070358003   -2.0140724   0.87895427 
    9550   0.45264357    -2.531368  0.069878841   -2.0092228   0.82987564 
    9600   0.43435014   -2.4999635  0.069479283   -1.9964961    1.1094049 
    9650   0.44967385   -2.5221433   0.06321178   -2.0096324   0.79394804 
    9700   0.45270343   -2.5382558  0.072647035   -2.0132826   0.79633786 
    9750   0.45958904   -2.5339844  0.073924975   -2.0008534   0.66107647 
    9800   0.46557719   -2.5282028  0.061823717   -2.0011899   0.70797058 
    9850   0.45564005   -2.5376457  0.067598561   -2.0147868   0.82658128 
    9900   0.45702923    -2.531469  0.067010409   -2.0078102   0.81909434 
    9950   0.45612162   -2.5255305  0.057430891    -2.012358   0.91576309 
   10000   0.46545358   -2.5244113  0.059844049   -1.9995015    0.8308997 
   10050   0.46026721   -2.5348402  0.072102419   -2.0028541   0.73550775 
   10100   0.46193964   -2.5235574   0.06626234   -1.9957404   0.88726272 
   10150   0.47521813   -2.5325519  0.062640144   -1.9950896   0.80728618 
   10200   0.46357193   -2.5413709   0.07044071   -2.0077446   0.77929507 
   10250   0.46498588   -2.5157458  0.059413916   -1.9917334    0.8339615 
   10300   0.46004408   -2.5129826  0.060097877   -1.9932241   0.89270302 
   10350   0.45378415   -2.5132451   0.06018078   -1.9996583   0.95205962 
   10400   0.44712556   -2.5001266  0.062446024   -1.9909277   0.93174704 
   10450    0.4678094   -2.5223143  0.057669595   -1.9972251   0.80968918 
   10500         0.45   -2.5339005  0.052286306   -2.0319892   0.80463205 
   10550   0.46075748   -2.5452652  0.060852674   -2.0240391   0.64193362 
   10600   0.44593986   -2.5248667  0.061321387   -2.0179771   0.81495855 
   10650   0.45782885   -2.5284693  0.059821243   -2.0112008   0.81484398 
   10700   0.45102931   -2.5305532  0.063539607   -2.0163601   0.72334784 
   10750   0.44915305   -2.5265303  0.061261466   -2.0164901   0.88280423 
   10800   0.44576279   -2.5182128  0.059648531    -2.013173   0.96546208 
   10850   0.45324949   -2.5254301  0.059884749   -2.0126735   0.76295642 
   10900    0.4636294   -2.5367475  0.056680463    -2.016824   0.75382274 
   10950   0.44140369   -2.5282439  0.062387892   -2.0248201    0.8304407 
   11000   0.45118855   -2.5287832   0.06142636   -2.0165443    0.7545999 
   11050     0.456516   -2.5292942  0.063433446   -2.0097252    0.7369878 
   11100   0.44750568   -2.5351995  0.068810872   -2.0192558   0.66063825 
   11150    0.4411869   -2.5166657   0.06081169   -2.0150348   0.82545792 
   11200   0.45119372   -2.5370415  0.068651112   -2.0175726   0.75188709 
   11250   0.45191741   -2.5338991  0.058668954   -2.0236893   0.77814537 
   11300   0.45012497   -2.5281308   0.05974228   -2.0186387   0.68601379 
   11350    0.4582659   -2.5169887  0.058507823   -2.0005968   0.72730419 
   11400   0.44785428   -2.5179838   0.05928541   -2.0112173   0.74418413 
   11450   0.44428534   -2.5162067  0.059319127   -2.0129725   0.74550061 
   11500   0.43059856   -2.5238504  0.064077222   -2.0295334   0.85032027 
   11550   0.44629053    -2.526038  0.065056567   -2.0150628   0.81617827 
   11600   0.45321523   -2.5411348  0.061697274      -2.0266   0.74124798 
   11650   0.45025265    -2.539953  0.068762466   -2.0213131   0.76010523 
   11700   0.44515132   -2.5279446  0.065871186   -2.0172931   0.81689555 
   11750   0.46191154   -2.5487985  0.065895691   -2.0213762   0.66362647 
   11800   0.46509157    -2.542836  0.066173909   -2.0119581   0.70578626 
   11850   0.47127031   -2.5498877  0.063795839   -2.0152143   0.77194606 
   11900   0.46298986   -2.5211945  0.056650603   -2.0019399   0.75550997 
   11950   0.46854464   -2.5368793  0.054686531   -2.0140386    0.6206772 
   12000   0.45862428   -2.5267545  0.058724349   -2.0097881   0.70024982 
   12050   0.46785328    -2.536647  0.057157419   -2.0120262    0.7434807 
   12100   0.46265355   -2.5432068  0.071007766   -2.0099311   0.63373986 
   12150    0.4587748   -2.5182696  0.054185136    -2.005692   0.84408609 
   12200   0.44712716   -2.5190959  0.063275942   -2.0090654   0.82245072 
   12250   0.46296647    -2.506671  0.048573454   -1.9955169   0.74564338 
   12300   0.45504341   -2.5053011  0.055202141   -1.9954347   0.81515181 
   12350   0.44425836   -2.5459182  0.073654568   -2.0283755   0.65504911 
   12400   0.46143284   -2.5351112  0.062673648   -2.0113893   0.61222461 
   12450   0.46868276   -2.5414057  0.062515604   -2.0105979   0.55147091 
   12500   0.45624976    -2.532526  0.066130796   -2.0105257     0.582269 
   12550   0.45696264   -2.5348199  0.066237386   -2.0120007   0.75538872 
   12600    0.4507788   -2.5306019   0.06586104   -2.0143377   0.77172424 
   12650    0.4672566   -2.5368985  0.056853812   -2.0131775   0.79338181 
   12700   0.46095981   -2.5258839   0.05773886   -2.0075694   0.81561239 
   12750   0.46253911   -2.5323882   0.06104257    -2.009192   0.71995029 
   12800         0.45   -2.5355978  0.050464863   -2.0355079   0.73934938 
   12850   0.44327316   -2.5296485  0.057685142   -2.0290596   0.74941126 
   12900   0.45786328    -2.555007  0.064969333    -2.032556   0.53423285 
   12950   0.44116037   -2.5369076  0.063596338   -2.0325186   0.56922555 
   13000   0.44026188   -2.5245492  0.060558395   -2.0240958   0.68497586 
   13050   0.46345137   -2.5364499  0.059091408   -2.0142933   0.59179063 
   13100   0.46995299    -2.543979  0.065770133   -2.0086475   0.55553233 
   13150   0.45318975   -2.5406113  0.057465867   -2.0303334   0.62125996 
   13200   0.44907554   -2.5219444  0.055428426   -2.0178147   0.64670971 
   13250   0.45838512   -2.5409363  0.050061183    -2.032872    0.6230788 
   13300   0.44652763   -2.5357345  0.057662984    -2.031916    0.7234734 
   13350   0.45809883   -2.5465359  0.053455511   -2.0353633   0.59402661 
   13400   0.45537088   -2.5346294  0.051342448   -2.0282956   0.66382814 
   13450   0.44656002   -2.5497774  0.067799057   -2.0357904   0.51052563 
   13500   0.44318692   -2.5236699  0.050795438   -2.0300569   0.64969969 
   13550   0.44580343   -2.5425316   0.06112221   -2.0359775   0.42329006 
   13600   0.43336557   -2.5266623  0.059769177   -2.0338887    0.4534381 
   13650   0.44908682   -2.5617606  0.061207505   -2.0518405   0.42531428 
   13700   0.44707732   -2.5520707  0.067238576   -2.0381273   0.54998907 
   13750   0.44399628   -2.5224565  0.061205022   -2.0176252   0.73144492 
   13800   0.45066594   -2.5333125  0.058834889   -2.0241873   0.67831708 
   13850   0.44999735   -2.5307625  0.061266429   -2.0198738   0.53000948 
   13900   0.46436715   -2.5493598  0.055614347   -2.0297653   0.53181066 
   13950   0.44953047    -2.537598  0.059144939   -2.0292972   0.73207952 
   14000   0.45369366   -2.5553826  0.063491052    -2.038576     0.605688 
   14050   0.45309523   -2.5444117  0.061559696   -2.0301344    0.5986023 
   14100   0.44689263   -2.5396676  0.062913232   -2.0302341   0.61951445 
   14150   0.44540438   -2.5499121  0.070111736   -2.0347672   0.59465352 
   14200    0.4504737   -2.5292242  0.055505638   -2.0236202   0.74332483 
   14250   0.45611861   -2.5425394  0.056589384   -2.0302115   0.64469539 
   14300   0.45539329   -2.5375817   0.05369579   -2.0288721   0.52000596 
   14350   0.44307283   -2.5476988  0.063627303   -2.0413679   0.69763627 
   14400   0.46310823   -2.5460246  0.059213578   -2.0240888   0.65083232 
   14450   0.44958347   -2.5492931  0.059907994   -2.0401763   0.64663331 
   14500   0.43814098   -2.5402637  0.060321015   -2.0421668   0.69025178 
   14550   0.44520825    -2.538887  0.068798114   -2.0252516    0.6838873 
   14600   0.46143886   -2.5539452  0.061361954   -2.0315289   0.63494822 
   14650    0.4642236   -2.5535448  0.057672571   -2.0320355   0.59504943 
   14700    0.4372963   -2.5271164  0.064026318   -2.0261582   0.69810158 
   14750   0.44103978   -2.5276414  0.059239969   -2.0277292   0.77492874 
   14800   0.45531704   -2.5462613  0.063007525   -2.0283162    0.4483592 
   14850   0.44955635   -2.5402955  0.066153627   -2.0249602   0.71666694 
   14900         0.45   -2.5557583  0.054008763   -2.0521245   0.66143215 
   14950   0.43206021   -2.5281631  0.051942245   -2.0445207   0.81356972 
   15000   0.43175729   -2.5576943  0.060779841   -2.0655169   0.49421326 
   15050    0.4235471   -2.5408108  0.071123822   -2.0464929    0.6592697 
   15100   0.45307446   -2.5605184  0.059102971   -2.0487185   0.60590271 
   15150   0.45968667    -2.575855  0.058419832   -2.0581316    0.5341824 
   15200         0.45   -2.5448575  0.067888728   -2.0273438    0.5623018 
   15250   0.44683167   -2.5448368  0.065939064   -2.0324384   0.65973552 
   15300   0.45134639   -2.5383891  0.056798713   -2.0306201   0.63636991 
   15350   0.43890081   -2.5426636  0.070667602   -2.0334609   0.66638155 
   15400   0.45312187   -2.5514428  0.064285803   -2.0344127   0.56296794 
   15450   0.41981403   -2.5151424  0.059184346   -2.0364939   0.84775277 
   15500   0.45379147   -2.5553134  0.066470427   -2.0354297   0.52555128 
   15550   0.47606083   -2.5706838  0.054003273   -2.0410164   0.56006258 
   15600   0.46516403   -2.5543029  0.060792093   -2.0287344   0.56760702 
   15650    0.4288158   -2.5243686  0.064847842   -2.0310623   0.77494738 
   15700   0.46069493   -2.5545266  0.063826381   -2.0303892   0.60784676 
   15750   0.46032157   -2.5566714  0.063730083   -2.0330034   0.51781651 
   15800   0.46117374   -2.5512871  0.064063178   -2.0264345   0.64235624 
   15850     0.446294   -2.5394832  0.064032332   -2.0295288   0.87675079 
   15900   0.45045547   -2.5477765  0.062096375      -2.0356   0.65438329 
   15950   0.46254138   -2.5607388   0.06373724   -2.0348456   0.60184393 
   16000   0.45950856   -2.5686513  0.066193692   -2.0433319   0.57224123 
   16050   0.46612074   -2.5626345  0.066985778   -2.0299164   0.45546463 
   16100   0.45701754   -2.5639107  0.070393466   -2.0368805    0.5931143 
   16150   0.45240115   -2.5489532  0.067848575   -2.0290805   0.55536267 
   16200    0.4342405    -2.528382  0.060840029   -2.0336634    0.8196369 
   16250   0.45702837   -2.5525258  0.060343174   -2.0355351   0.55646183 
   16300   0.44526683   -2.5401568  0.057225096   -2.0380359   0.62025469 
   16350   0.44090442   -2.5412183  0.065640481   -2.0350408   0.61624903 
   16400   0.43303028   -2.5259355  0.069401818   -2.0238642   0.66184288 
   16450   0.45029769   -2.5468997  0.059707235     -2.03727   0.73066462 
   16500   0.44569102   -2.5506843  0.066191064   -2.0391736    0.6403326 
   16550    0.4707643   -2.5516063   0.06109939   -2.0201349   0.61097873 
   16600   0.45000729   -2.5487222  0.065984726   -2.0331052   0.77428216 
   16650   0.46255608   -2.5593754  0.059919105   -2.0372856   0.61079031 
   16700   0.46361194   -2.5554338  0.059832421   -2.0323758   0.55129007 
   16750   0.44986474    -2.532689  0.063082911   -2.0201162   0.65464779 
   16800   0.45629594   -2.5473721  0.061443336   -2.0300131   0.60135772 
   16850   0.44945155   -2.5390703  0.064753344     -2.02524   0.68124074 
   16900   0.46226281   -2.5399138  0.056798457   -2.0212378   0.62260516 
   16950   0.46423044   -2.5437368  0.052034029   -2.0278591   0.76904222 
   17000   0.46169127   -2.5610078  0.064481497   -2.0352198   0.69002593 
   17050   0.48288377   -2.5544708  0.057188102   -2.0148013    0.5476086 
   17100         0.45   -2.5460222  0.060249548   -2.0361476   0.68686559 
   17150   0.45485104   -2.5601444  0.065503705   -2.0401687   0.55325027 
   17200   0.45212733   -2.5583469  0.057082466   -2.0495139   0.54880699 
   17250   0.45506526   -2.5658427  0.062203166   -2.0489535   0.50174581 
   17300   0.44742325   -2.5586518  0.059283729   -2.0523177   0.57663223 
   17350   0.45220381   -2.5625706   0.06272515   -2.0480185   0.55552046 
   17400   0.45065736    -2.561609  0.064159332   -2.0471679    0.5915321 
   17450    0.4463647   -2.5605958  0.063803201   -2.0507999   0.65999521 
   17500   0.45466711   -2.5476389  0.055300411   -2.0380502   0.61187405 
   17550   0.44584428   -2.5574537  0.062778693   -2.0492023   0.53169628 
   17600   0.43897687   -2.5697654  0.067737888   -2.0634164   0.64624642 
   17650   0.45505528   -2.5588995  0.055672265   -2.0485512   0.53722554 
   17700   0.44845959   -2.5531918  0.060596844   -2.0445091   0.61965241 
   17750    0.4514133    -2.540264  0.057513357   -2.0317135   0.75019833 
   17800   0.45940026   -2.5517634  0.057772346   -2.0349736   0.62795101 
   17850   0.46253298   -2.5680929   0.06408233    -2.041863   0.40573685 
   17900   0.46031594   -2.5742859  0.059193086   -2.0551605   0.51309977 
   17950   0.45680004   -2.5754975  0.060982709   -2.0580954    0.6129834 
   18000   0.46787123   -2.5761216  0.059177955   -2.0494623   0.50212479 
   18050   0.45282464    -2.561096  0.061392709    -2.047256   0.65046449 
   18100   0.44316013   -2.5622127  0.067583047   -2.0518388   0.61841306 
   18150   0.44469863   -2.5454491  0.059594548   -2.0415265   0.65533123 
   18200   0.45575845   -2.5686013  0.072262922   -2.0409597   0.51040321 
   18250    0.4596205   -2.5734632  0.065143171   -2.0490826   0.45556509 
   18300   0.45915978   -2.5615861  0.061291859   -2.0415171   0.64414291 
   18350   0.45684617   -2.5562838  0.048153427   -2.0516649     0.664564 
   18400   0.44149598   -2.5564096  0.074567031   -2.0407145    0.4194824 
   18450   0.46877743   -2.5768023  0.054874247   -2.0535413    0.4793405 
   18500   0.45247056   -2.5538831  0.067713047   -2.0340766   0.53159209 
   18550   0.45901957   -2.5763592  0.069506215   -2.0482159   0.50584767 
   18600   0.45792976   -2.5656716  0.056652219   -2.0514712   0.60074208 
   18650   0.45722639   -2.5677362  0.057440317   -2.0534505   0.53006052 
   18700   0.45718414   -2.5829863   0.06589565   -2.0602875   0.45636821 
   18750   0.45557942    -2.577425  0.064558562   -2.0576666   0.46225178 
   18800   0.45810966   -2.5679123  0.053415181   -2.0567692   0.49626159 
   18850   0.44756909   -2.5648096  0.064345731   -2.0532677   0.41246544 
   18900   0.45290368   -2.5790629  0.064686469   -2.0618501   0.49132914 
   18950   0.44463683   -2.5725449  0.069808808   -2.0584698   0.50114326 
   19000   0.44498229   -2.5581554  0.060290256   -2.0532537    0.6957147 
   19050   0.46813138   -2.5740974    0.0603312    -2.046025   0.50029151 
   19100   0.46635862   -2.5669729  0.054066978   -2.0469359   0.64567507 
   19150   0.46495513   -2.5685142  0.058518393   -2.0454281   0.66485345 
   19200         0.45   -2.5900896  0.066984242   -2.0734804   0.36673837 
   19250   0.43633151    -2.582202  0.064436529   -2.0817976   0.62378299 
   19300   0.45279682   -2.5904103  0.058745252   -2.0792456   0.48795508 
   19350   0.43745247   -2.5704244  0.060689166   -2.0726473   0.59085383 
   19400         0.45   -2.5689189   0.06787685   -2.0514171   0.73172538 
   19450   0.46842666   -2.5678815  0.057634738   -2.0422105   0.63112181 
   19500   0.43590024   -2.5441145  0.063219822   -2.0453577   0.82315687 
   19550   0.43942336    -2.548865  0.054306272   -2.0555016   0.78449284 
   19600   0.46407081   -2.5790972  0.060790928   -2.0546222   0.55954503 
   19650   0.45889279   -2.5594085  0.054023425   -2.0468747   0.72280234 
   19700   0.46563442   -2.5816722  0.063418111   -2.0530077   0.52655134 
   19750   0.46793371   -2.5732376  0.052181688   -2.0535122   0.63935326 
   19800    0.4673294   -2.5773021  0.060582152     -2.04978   0.50642052 
   19850   0.44100778   -2.5716487  0.063795412    -2.067213   0.62007151 
   19900   0.43916001    -2.550386  0.057357333   -2.0542346   0.74792901 
   19950   0.46022348   -2.5722618  0.052542529   -2.0598793   0.66502241 
   20000   0.46333826   -2.5864923  0.063875769   -2.0596644   0.43253511 
   20050   0.47262998   -2.5737323  0.059155714   -2.0423404   0.48394322 
   20100   0.43724973    -2.553636  0.068358474   -2.0483922   0.71275894 
   20150   0.45118448   -2.5665433  0.063382793    -2.052352   0.57936936 
   20200         0.45   -2.5748976  0.058569633    -2.066703   0.53752126 
   20250   0.44264677   -2.5863603  0.067260659   -2.0768217   0.42721121 
   20300    0.4420983   -2.5775691   0.06318832   -2.0726509    0.4430813 
   20350   0.45725024    -2.588129  0.052890953   -2.0783689    0.5716455 
   20400   0.43916653   -2.5699942  0.070810907   -2.0603827   0.55180416 
   20450    0.4144457   -2.5465798  0.064727099   -2.0677524   0.67669585 
   20500   0.43673915    -2.564968  0.066438484   -2.0621544   0.57613382 
   20550   0.44946672   -2.5860322  0.062094609   -2.0748454   0.45372989 
   20600   0.45020284   -2.5797187  0.060132674   -2.0697584   0.53216087 
   20650   0.45528464   -2.5772438  0.055521742   -2.0668168   0.49825823 
   20700   0.44552837   -2.5653458  0.059185179   -2.0610035   0.53156873 
   20750   0.43631343   -2.5679775  0.064952498   -2.0670752   0.44336637 
   20800   0.43898791   -2.5585095  0.054180523   -2.0657069   0.50978724 
   20850   0.43498777   -2.5839555  0.066333798   -2.0829964   0.54544562 
   20900   0.45564599      -2.5851  0.058359905   -2.0714738   0.43249412 
   20950   0.44686565   -2.5783017  0.056157177   -2.0756512   0.28775468 
   21000   0.44164059   -2.5747713  0.062448865   -2.0710499   0.62352304 
   21050   0.44198752   -2.5792786  0.064598154   -2.0730612    0.5530024 
   21100   0.45033375   -2.5763129  0.056053034   -2.0703013   0.53436161 
   21150   0.43185536   -2.5729172  0.064360326   -2.0770614   0.58566607 
   21200         0.45   -2.5719402  0.064583404   -2.0577318   0.55708898 
   21250   0.46135154   -2.5729644  0.059802524   -2.0521948   0.57278082 
   21300   0.45146792   -2.5684517   0.06427529   -2.0530847   0.76968918 
   21350   0.46479848   -2.5660211  0.059519106   -2.0420908   0.53424952 
   21400         0.45   -2.5858766   0.06459858   -2.0716531   0.44406999 
   21450   0.43894737   -2.5652221  0.060105572   -2.0665349   0.57785819 
   21500     0.445634   -2.5604869  0.054472159   -2.0607521   0.56450125 
   21550   0.43956884   -2.5728021  0.071468126   -2.0621314   0.42263638 
   21600   0.43993821   -2.5798064  0.058706926   -2.0815279    0.5423191 
   21650   0.44208599   -2.5774993  0.058962245   -2.0768195   0.56490998 
   21700         0.45   -2.5683993  0.064573819   -2.0542005   0.50921303 
   21750   0.46331227    -2.580836  0.059944877   -2.0579649    0.5332929 
   21800   0.45293484   -2.5602881  0.060242087   -2.0474886   0.62739812 
   21850   0.45506917   -2.5578648  0.059070229   -2.0441047   0.60046813 
   21900   0.45948897   -2.5718782  0.062361669   -2.0504105   0.46443153 
   21950    0.4606945   -2.5711929  0.068628741   -2.0422536   0.47610056 
   22000   0.44778458   -2.5553528  0.069120501   -2.0388209    0.4626769 
   22050   0.45168001   -2.5711512  0.067338007   -2.0525096     0.513446 
   22100   0.45321773   -2.5650796   0.05721207   -2.0550275   0.56635037 
   22150   0.45949311   -2.5647152  0.058675062     -2.04693   0.42644406 
   22200   0.44953235   -2.5489196  0.059196318   -2.0405655   0.61606996 
   22250   0.46089113   -2.5703129  0.058328326   -2.0514775   0.48712155 
   22300   0.46437982   -2.5784039  0.062041472   -2.0523696   0.50009916 
   22350   0.45108033   -2.5615945  0.059386407   -2.0515036   0.73070899 
   22400   0.44915611   -2.5576815   0.05905053   -2.0498491   0.66439856 
   22450    0.4596281   -2.5668168   0.05583874    -2.051733   0.61257353 
   22500   0.45953949   -2.5632169  0.064716451   -2.0393439   0.63270492 
   22550   0.45530735   -2.5707257  0.072111332   -2.0436864   0.44402306 
   22600   0.44728261   -2.5536662  0.062313644   -2.0444426   0.60742575 
   22650    0.4594974   -2.5695487  0.064794866   -2.0456394   0.46174715 
   22700   0.45523464   -2.5611264  0.064660279   -2.0416109   0.39171416 
   22750   0.45009667   -2.5599974  0.054111871    -2.056164   0.54324517 
   22800   0.46002762   -2.5753327  0.068398912   -2.0472895   0.49255988 
   22850   0.45535479   -2.5815717  0.063714329   -2.0628821   0.45748632 
   22900   0.45067404   -2.5709528  0.062410076   -2.0582443   0.55620592 
   22950   0.47335419   -2.5815061   0.06646916   -2.0420772   0.52164578 
   23000         0.45   -2.5794892  0.065570611   -2.0642936   0.48085442 
   23050   0.45748925    -2.580123  0.063748886   -2.0592662   0.32508624 
   23100   0.44898806   -2.5644755  0.058125603    -2.057736   0.44009422 
   23150   0.44783465   -2.5713382  0.057838717    -2.066038   0.38879321 
   23200   0.44402659   -2.5777864  0.066119174   -2.0680107   0.38299431 
   23250   0.44530096   -2.5655231  0.056261528   -2.0643317   0.42204441 
   23300   0.45091835   -2.5559171  0.050207509    -2.055167   0.50295151 
   23350   0.44023004   -2.5583834  0.050512417   -2.0680078   0.69934598 
   23400   0.45328148   -2.5822717   0.05848813   -2.0708799   0.45353553 
   23450   0.45257632   -2.5821967  0.062677968   -2.0673195   0.32057009 
   23500   0.43527604   -2.5655927  0.063526137   -2.0671532   0.44840972 
   23550   0.44891159   -2.5696208  0.064119793   -2.0569635   0.37539973 
   23600   0.46174818   -2.5752117  0.055736628   -2.0581117   0.26914039 
   23650   0.45297804   -2.5793186    0.0648115   -2.0619065   0.21629446 
   23700    0.4308981   -2.5556469  0.058745333   -2.0663625   0.59990447 
   23750   0.45671281   -2.5899492  0.064030114   -2.0695869   0.34088639 
   23800   0.46139178   -2.5912093  0.064120732   -2.0660813   0.35214691 
   23850   0.43415583   -2.5614135  0.061158421    -2.066461    0.5487298 
   23900   0.43581498   -2.5688998  0.056400938    -2.077047    0.6367479 
   23950   0.44279692    -2.581042  0.063415068    -2.075199   0.39529837 
   24000   0.44364785   -2.5812658  0.060842312   -2.0771453   0.50911939 
   24050    0.4426454   -2.5788273  0.062143137   -2.0744077   0.32246631 
   24100   0.46205741   -2.5898772  0.065158435   -2.0630464    0.4167838 
   24150   0.44727118   -2.5735003  0.065718632   -2.0608832   0.46294181 
   24200   0.44477318    -2.581464  0.063661471      -2.0734   0.56403938 
   24250   0.44954961   -2.5827152  0.058636106   -2.0749041   0.62479951 
   24300   0.45037557   -2.5830648  0.063052688   -2.0700118   0.54319251 
   24350   0.44215479   -2.5821081  0.067631328   -2.0726904   0.60510576 
   24400    0.4465297   -2.5668012  0.053482799   -2.0671608   0.57414294 
   24450   0.45539724   -2.5838392  0.056533242   -2.0722882    0.5850372 
   24500   0.44799216   -2.5709003  0.063424945   -2.0598566   0.66309297 
   24550   0.44564323   -2.5754152  0.063468915   -2.0666744   0.50760888 
   24600   0.43950749   -2.5752214  0.058049165    -2.078031   0.61948867 
   24650   0.46052837   -2.5947571  0.062844335   -2.0717681   0.46536503 
   24700   0.44494733   -2.5749321  0.061311216   -2.0690443   0.64523691 
   24750   0.43623599   -2.5606788  0.059073024   -2.0657334   0.62618022 
   24800   0.44545026   -2.5727896  0.063598026   -2.0641125   0.53787635 
   24850   0.46159813   -2.5867715  0.052670055    -2.072888   0.50621991 
   24900   0.46709778   -2.5879331  0.054857259   -2.0663674    0.4367299 
   24950   0.43394058   -2.5500365   0.04939968   -2.0670578   0.68401233 
   25000   0.46556022   -2.5945119  0.062533026   -2.0668066   0.44702507 
   25050   0.45997035   -2.5869889  0.058984832   -2.0684171   0.67055129 
   25100         0.45    -2.591252   0.06152618   -2.0801008   0.34494163 
   25150   0.45807542   -2.6143969   0.05623918    -2.100464   0.48082419 
   25200   0.45131236   -2.5925893  0.056351037    -2.085302    0.4921501 
   25250   0.44362034   -2.5946389  0.056721301   -2.0946669   0.32798215 
   25300   0.43776859   -2.5968363  0.061298394   -2.0981341   0.43878825 
   25350   0.42215546     -2.58273  0.060693311    -2.100233   0.48205849 
   25400   0.45196429   -2.6008504  0.050643295   -2.0986195   0.34827718 
   25450   0.44112238   -2.6029489  0.057487439   -2.1047067    0.2856812 
   25500   0.43630361   -2.5998042  0.059026574   -2.1048376   0.20105536 
   25550   0.43679156   -2.5879333  0.051309867   -2.1001958   0.26005493 
   25600   0.45178147    -2.598828  0.059784537   -2.0876385  0.056146133 
   25650   0.42085704    -2.592249  0.069296632   -2.1024461   0.30439935 
   25700   0.43893574   -2.5941254  0.056866384   -2.0986891   0.28951062 
   25750   0.43453355   -2.5897199  0.056783748   -2.0987647   0.33433713 
   25800   0.43655081   -2.5723335  0.055584351   -2.0805621   0.30722655 
   25850   0.43482631   -2.5796497  0.053198516   -2.0919873   0.40713678 
   25900   0.46048326   -2.6196555  0.062722676   -2.0968333   0.23763802 
   25950   0.45718729   -2.6136906  0.063762816   -2.0931215   0.22525367 
   26000         0.45   -2.5816101  0.065574748   -2.0664103   0.31630186 
   26050   0.44285953   -2.5741117  0.065983647   -2.0656376   0.37070764 
   26100   0.45214328   -2.5740911  0.057770947   -2.0645536   0.47439414 
   26150   0.43870434   -2.5840093  0.065192107   -2.0804785   0.50846889 
   26200   0.46735125   -2.5953238  0.055892607   -2.0724694   0.34592324 
   26250   0.45410812   -2.5934239  0.069296063   -2.0703981   0.42255972 
   26300   0.46271138    -2.590099  0.062845505   -2.0649277   0.29821482 
   26350   0.45845887   -2.6011129  0.062817831   -2.0802183   0.41723657 
   26400   0.46317866   -2.6028952  0.065842559     -2.07426   0.37436831 
   26450   0.45432429   -2.5915495  0.061931073   -2.0756728   0.45642143 
   26500   0.43597534   -2.5640275  0.064117651   -2.0642979    0.7271015 
   26550   0.45728449   -2.6013698  0.062914231   -2.0815522    0.3756442 
   26600   0.45659246   -2.5829869  0.061410202   -2.0653648   0.30013035 
   26650   0.45786134   -2.5818837  0.058162887   -2.0662411   0.42011515 
   26700   0.46067723   -2.5940063  0.070006354   -2.0637066   0.35689011 
   26750   0.45137706   -2.5912317  0.056976844   -2.0832539   0.53311223 
   26800   0.45142373   -2.5959494  0.069500538   -2.0754013   0.36733918 
   26850   0.44380823   -2.5790237  0.059552498   -2.0760328    0.4636256 
   26900   0.44819546   -2.5792662  0.068606001   -2.0628383   0.44428701 
   26950   0.44733596   -2.5761174  0.067020754   -2.0621335   0.36524203 
   27000         0.45   -2.6105126  0.061704562    -2.099183   0.32890119 
   27050   0.44226603   -2.6014141  0.065853881   -2.0936627   0.30325246 
   27100   0.45571229   -2.6068131  0.058149306   -2.0933313   0.26625387 
   27150   0.43919616    -2.595689  0.064806236   -2.0920526   0.38045855 
   27200    0.4351778   -2.5934198  0.060551321   -2.0980533   0.41604592 
   27250   0.43770601   -2.5936217  0.056237655   -2.1000428    0.4207998 
   27300   0.44845099   -2.5907185  0.052856887   -2.0897843   0.43370581 
   27350   0.43888461   -2.6061047  0.058387626   -2.1091982   0.37648333 
   27400   0.44507862   -2.5872779  0.052350521   -2.0902197   0.42579953 
   27450   0.42454841   -2.5751464  0.052824033   -2.0981277   0.50054459 
   27500   0.43027202    -2.602016  0.057391421   -2.1147111   0.17936717 
   27550   0.42534913   -2.5798102  0.059341885   -2.0954736   0.37387262 
   27600   0.43580067   -2.5985675  0.056910657   -2.1062193   0.27510705 
   27650    0.4196117   -2.5744398  0.054486654   -2.1006911   0.42278258 
   27700   0.44524647   -2.6094748  0.061987195   -2.1026122   0.30303954 
   27750   0.42812867   -2.5758258  0.048469153   -2.0995847   0.56960725 
   27800   0.43323611   -2.5790471  0.055294039    -2.090878   0.37542761 
   27850   0.44608668   -2.5941642  0.058636713   -2.0898126    0.1883267 
   27900         0.45   -2.5965068  0.063333171   -2.0835486   0.41935366 
   27950    0.4549259   -2.5826407  0.051608328   -2.0764855   0.41753527 
   28000   0.45208488   -2.5774443  0.057196578   -2.0685396   0.50603292 
   28050   0.46201113   -2.5969961  0.059354189   -2.0760158   0.32620816 
   28100    0.4558693   -2.5906762  0.060392468   -2.0747943   0.38698963 
   28150   0.45183246   -2.5743583  0.057035518   -2.0658669   0.58641241 
   28200   0.45530531   -2.5888956  0.061381882   -2.0725879    0.4180681 
   28250    0.4446247   -2.5916347   0.06231143   -2.0850691    0.5277533 
   28300   0.45099546   -2.5864599  0.065054628   -2.0707857   0.41118925 
   28350   0.44787135   -2.5799829  0.058363597   -2.0741212   0.50508534 
   28400   0.43845581   -2.5676623  0.056627149   -2.0729448   0.47555123 
   28450   0.45312046   -2.5867245  0.061073169   -2.0729085   0.36756303 
   28500   0.44174856    -2.571443  0.058064117   -2.0719984   0.46745822 
   28550   0.45164012   -2.5995514  0.067762849   -2.0805248   0.41259844 
   28600   0.45143758   -2.5981426  0.059929912   -2.0871513   0.48040114 
   28650   0.44513709   -2.5767699  0.057902718    -2.074101   0.51061136 
   28700   0.45800049   -2.6000246  0.061071854   -2.0813339    0.3442382 
   28750   0.45539151    -2.594675  0.057654845   -2.0820081   0.36218977 
   28800   0.44063193   -2.5713382  0.059709568   -2.0713639   0.60387941 
   28850   0.44673465   -2.5768048  0.062334054   -2.0681083   0.45024836 
   28900   0.44092708   -2.5844427  0.063625493   -2.0802575   0.48295404 
   28950   0.43777809   -2.5722887  0.061252605   -2.0736228   0.39204226 
   29000     0.450731    -2.584837  0.057343502   -2.0771381   0.32745782 
   29050   0.45730175   -2.5877876   0.05152855   -2.0793384   0.42311219 
   29100   0.43648202   -2.5794141  0.066760523   -2.0765353   0.48913693 
   29150    0.4536686   -2.6042448  0.069584363   -2.0813699   0.36245731 
   29200   0.43887165   -2.5828868  0.064698631   -2.0796823   0.52276228 
   29250   0.44670686   -2.5926175  0.066136097   -2.0801468   0.43631215 
   29300   0.45261654   -2.5821519  0.061972667   -2.0679399   0.43445752 
   29350   0.43481759    -2.578163  0.071592507   -2.0721152   0.58759364 
   29400   0.44841324   -2.5905865   0.05921904   -2.0833279   0.29224109 
   29450   0.43830033   -2.5744596  0.059302342   -2.0772221   0.48300738 
   29500   0.44478471   -2.5815126  0.056217321   -2.0808812    0.4674438 
   29550   0.44349357   -2.5757452  0.054971306   -2.0776499   0.47374059 
   29600   0.45347213   -2.5985331  0.064996607   -2.0804423   0.21821261 
   29650   0.44006977   -2.5886183  0.066909946   -2.0820053   0.17140416 
   29700   0.45448634   -2.5863411  0.054930032   -2.0773035   0.26671605 
   29750   0.44478367   -2.5814681  0.061283437   -2.0757716   0.35263655 
   29800         0.45   -2.5770601  0.060219772   -2.0672154   0.40223334 
   29850   0.45078291    -2.568845  0.059848978   -2.0585888   0.49142569 
   29900   0.44740293   -2.5641513  0.065443313   -2.0516779    0.4946789 
   29950   0.46440315   -2.5948383  0.067399216   -2.0634229   0.37856327 
   30000   0.44953377   -2.5707363  0.070611578   -2.0509655   0.51127464 
   30050   0.44566012   -2.5739166  0.059925082   -2.0687028   0.42594163 
   30100    0.4535777   -2.5775201  0.054548606   -2.0697718   0.53336471 
   30150    0.4412115   -2.5647904  0.067888052   -2.0560585   0.64509087 
   30200         0.45   -2.5975811  0.064555244   -2.0834008   0.30757193 
   30250   0.44988709    -2.589827  0.064834761     -2.07548   0.40033265 
   30300   0.45144706    -2.591114  0.058717921   -2.0813252   0.47497544 
   30350   0.45963195   -2.5945228  0.058413876     -2.07686   0.23608953 
   30400   0.45641467   -2.6016823  0.062453237   -2.0831947    0.3273104 
   30450   0.44560894   -2.5834531   0.05718146    -2.081034   0.52068071 
   30500   0.43280035   -2.5773854  0.065486003   -2.0794597   0.53593587 
   30550   0.45402699   -2.5940366  0.056054052   -2.0843339   0.39341849 
   30600    0.4337982   -2.5813144  0.061206551   -2.0866711   0.49029294 
   30650   0.45684294   -2.6056174  0.058562947   -2.0905922   0.32772772 
   30700   0.45321639   -2.5973092   0.05714954   -2.0873209   0.29460397 
   30750   0.45154211   -2.5958413  0.053391123   -2.0912843   0.35096757 
   30800   0.43438137   -2.5797671  0.060441514   -2.0853062   0.41401637 
   30850   0.43947065   -2.5856464  0.064225832   -2.0823162   0.34254264 
   30900    0.4556851   -2.5858751  0.055786648    -2.074783   0.36671086 
   30950   0.43626252   -2.5735721  0.065991499   -2.0716816   0.52914739 
   31000   0.46017309   -2.5920903  0.051317875   -2.0809828    0.3133654 
   31050   0.44916136   -2.6022611  0.071073554   -2.0824005   0.34887984 
   31100   0.43910049   -2.5786329  0.054329352    -2.085569   0.50880519 
   31150   0.44155848   -2.5848565  0.059304668   -2.0843613   0.58446872 
   31200   0.45054439    -2.603075  0.069752208   -2.0831538    0.3722547 
   31250   0.46315176   -2.5964194  0.051518618    -2.082135    0.4420148 
   31300     0.450845   -2.5896633  0.061044654   -2.0781493   0.56710672 
   31350   0.46353138   -2.6066289  0.062421235   -2.0810626    0.5171859 
   31400   0.44415558   -2.5771679  0.056743107   -2.0766393   0.64765732 
   31450    0.4502961   -2.5888564  0.057877984   -2.0810575   0.43681201 
   31500   0.45529827   -2.5823994   0.05090227   -2.0765783   0.53697253 
   31550    0.4494244   -2.5971681  0.065197956   -2.0829203   0.47260827 
   31600   0.45944224   -2.5953851  0.061870079   -2.0744556    0.3885607 
   31650   0.44403798   -2.5816141  0.067682125   -2.0702641   0.49015728 
   31700   0.44530223   -2.5829018  0.062373207   -2.0755975   0.44130377 
   31750   0.46288041   -2.6057972  0.060032457   -2.0832701   0.27240692 
   31800   0.44484266   -2.5804854  0.058318374   -2.0776951   0.61599825 
   31850   0.44724226    -2.580976  0.063988871   -2.0701176   0.48457694 
   31900   0.44214472   -2.5802353  0.060936171   -2.0775229   0.44609503 
   31950    0.4398129   -2.5756765  0.058136605   -2.0780935    0.3083847 
   32000         0.45   -2.5911348   0.06958843   -2.0719214   0.30039306 
   32050   0.45957969   -2.5834001  0.065312843   -2.0588905   0.26113194 
   32100   0.43709283   -2.5730334  0.068654481   -2.0676503   0.38092644 
   32150   0.45986238   -2.5774046  0.061442474    -2.056483   0.36679796 
   32200   0.45357874   -2.5761972  0.067723431    -2.055273   0.39574036 
   32250   0.46910231   -2.5785202  0.051114548   -2.0586942   0.43026963 
   32300   0.46828005   -2.5845569  0.065533574   -2.0511335    0.3672685 
   32350   0.45662384   -2.5807685  0.067282382   -2.0572428    0.3820674 
   32400   0.44582709   -2.5659607  0.062799647   -2.0577055    0.3532602 
   32450   0.46751403   -2.5764961    0.0606598   -2.0487119   0.34798561 
   32500   0.44270908   -2.5747641  0.075200512   -2.0572235   0.40592004 
   32550   0.47207797   -2.5971407  0.058750927   -2.0667052   0.20788737 
   32600   0.44988007   -2.5609028  0.060132304   -2.0512654   0.53707041 
   32650   0.45244444   -2.5663283  0.053967368   -2.0602935   0.45731908 
   32700   0.45977367   -2.5834127  0.064330959   -2.0596912   0.36523336 
   32750   0.44073923   -2.5751141  0.068634964   -2.0661072   0.41038135 
   32800   0.45577194   -2.5811854  0.063652385   -2.0621408   0.39377063 
   32850   0.44945386   -2.5631308  0.061528508    -2.052523   0.37647262 
   32900   0.45650566   -2.5785735  0.062416128   -2.0600321    0.4148666 
   32950   0.46838804   -2.5944552  0.065970662   -2.0604868   0.25747071 
   33000         0.45   -2.5805015  0.058693868   -2.0721826    0.3040106 
   33050   0.45219176   -2.5894116  0.064246653     -2.07335   0.28756157 
   33100   0.44117253   -2.5799537  0.058831437   -2.0803174   0.52474438 
   33150   0.46033675   -2.5892898  0.057026568   -2.0723101   0.31463326 
   33200   0.45671651   -2.5958505  0.057980842   -2.0815338   0.37601748 
   33250   0.45692063   -2.5933123  0.059946557   -2.0768258   0.48848062 
   33300   0.45699151   -2.6009496   0.06372354   -2.0806154   0.46337783 
   33350   0.47094436   -2.5979582  0.058298961   -2.0691073   0.34050284 
   33400   0.45403298   -2.5931141  0.061290035   -2.0781694   0.33214919 
   33450     0.459451   -2.6076299  0.061654339   -2.0869074   0.38885156 
   33500   0.46166207   -2.5984633  0.061243753   -2.0759422   0.37502297 
   33550   0.46471356   -2.6159269  0.072001158   -2.0795995   0.27952715 
   33600   0.46869362   -2.6064214  0.056613966   -2.0815044   0.40430909 
   33650   0.46905151   -2.6030383  0.050369398   -2.0840083   0.47176136 
   33700   0.45821447   -2.5868962  0.052997349   -2.0760662   0.48453652 
   33750   0.44300358   -2.5999903  0.069179772   -2.0881761   0.41093569 
   33800   0.46419042   -2.6123861  0.064736778   -2.0838458    0.4542738 
   33850   0.46469796   -2.6005663  0.063139467   -2.0731161   0.49623874 
   33900   0.46021165   -2.5994027  0.062124593     -2.07745   0.31678506 
   33950    0.4498449   -2.5909777  0.061972985   -2.0795347   0.53945055 
   34000   0.46308173   -2.6050438  0.067936909    -2.074411   0.41305684 
   34050   0.46106874   -2.6063112   0.07260754   -2.0730192   0.48373684 
   34100   0.45799773   -2.5988935  0.069889352   -2.0713881   0.34705761 
   34150   0.47649563   -2.6092736  0.057146603   -2.0760285   0.44691632 
   34200   0.46087496   -2.5869234  0.055988347   -2.0704441   0.59517185 
   34250   0.45393603   -2.5938467  0.056927909    -2.083361   0.54991669 
   34300   0.45980699   -2.6117226  0.066485074   -2.0858137   0.49634543 
   34350    0.4519841   -2.5973662  0.067480617   -2.0782781    0.4967143 
   34400   0.44504289   -2.5830665  0.066149527   -2.0722449   0.50406173 
   34450   0.45933495   -2.5907858  0.064784452   -2.0670492   0.49524439 
   34500   0.45253622   -2.5844215  0.069756152   -2.0625063   0.58920141 
   34550   0.44569817   -2.5873561   0.06362449   -2.0784049    0.5317475 
   34600   0.45485398   -2.5895593  0.063389379    -2.071695   0.48510235 
   34650   0.46571639   -2.5900871  0.052572381   -2.0721864   0.40571846 
   34700         0.45   -2.6057909  0.049274809    -2.106891   0.29002836 
   34750   0.46744894    -2.622501  0.056027049   -2.0994146   0.29362973 
   34800   0.43324884   -2.5890422  0.057964555   -2.0981899   0.38279376 
   34850   0.44489611   -2.6120192  0.058848018   -2.1086459   0.32114732 
   34900   0.43149104    -2.594545  0.057858726   -2.1055548   0.45271128 
   34950   0.43115248   -2.5724566  0.051827276   -2.0898361   0.55114875 
   35000   0.44590585   -2.5946715  0.055367247     -2.09377   0.39217925 
   35050   0.45036431    -2.613837  0.058400674   -2.1054473   0.34078807 
   35100   0.45864229    -2.617161  0.061066771   -2.0978342   0.22180171 
   35150   0.44277166   -2.6033017  0.060971567   -2.0999274   0.30199422 
   35200   0.45390604    -2.606569  0.057162925   -2.0958783   0.32641682 
   35250   0.44400945   -2.6045996  0.068742422   -2.0922177   0.43072768 
   35300   0.43870024   -2.5989462  0.059757169   -2.1008543   0.42146035 
   35350   0.45155631   -2.6106011  0.060018659   -2.0994024   0.29763476 
   35400   0.46133012   -2.6241915  0.060850039   -2.1023958   0.38406595 
   35450   0.45739249   -2.6287381  0.068455559   -2.1032712   0.24231607 
   35500   0.45285945   -2.5995164  0.051320831   -2.0957135   0.45310256 
   35550   0.44970063   -2.5965403  0.054116875   -2.0930976    0.3938812 
   35600   0.44546628   -2.5989576    0.0592981   -2.0945644   0.56622446 
   35650   0.44603545   -2.5973386  0.062646836    -2.089028   0.46454133 
   35700   0.46022281   -2.6100807  0.058140715   -2.0921006   0.39306898 
   35750   0.44644409   -2.6082566  0.059963721   -2.1022209   0.38136862 
   35800   0.44206176   -2.6105301  0.062201194   -2.1066356   0.42100602 
   35850    0.4611663   -2.6139678  0.051249213   -2.1019366   0.38671202 
   35900   0.45641786   -2.6149007     0.052199   -2.1066642   0.42001599 
   35950   0.43778211   -2.6024586  0.065894952   -2.0991464   0.39883899 
   36000   0.44782296   -2.6015797   0.06552475   -2.0886051   0.30235126 
   36050   0.45046317   -2.6111824  0.060442072   -2.1006526   0.21091327 
   36100   0.44197715    -2.610848  0.062869443   -2.1063697   0.20235618 
   36150   0.44896097   -2.5974144  0.057722346   -2.0911052   0.22562169 
   36200   0.44446245    -2.596448  0.056553327   -2.0958026    0.3313871 
   36250   0.43787877   -2.6006374  0.058712322   -2.1044112   0.37790893 
   36300   0.44495754   -2.6144884  0.063929719    -2.105972     0.247224 
   36350   0.44909377   -2.5989681  0.051488159   -2.0987605   0.39241577 
   36400   0.45999039   -2.6227821  0.056927415   -2.1062476   0.15758769 
   36450   0.43378575   -2.5865064  0.057314532   -2.0957676    0.3538995 
   36500   0.43845169   -2.6111141  0.061283956   -2.1117439   0.17842964 
   36550   0.45585536   -2.6204278  0.051926483   -2.1130259   0.16051386 
   36600   0.43342679   -2.5886601  0.056581557   -2.0990129   0.42041817 
   36650    0.4262557   -2.5885872  0.057909929   -2.1047768   0.40786062 
   36700         0.45   -2.5842813  0.054708723   -2.0799476   0.39556129 
   36750   0.46256221   -2.6136018  0.069562769   -2.0818623   0.24556163 
   36800   0.45083653   -2.5915052  0.066597787   -2.0744465   0.38731574 
   36850   0.47001942   -2.6102466  0.056888539   -2.0837304   0.21998316 
   36900    0.4506956   -2.5940012  0.063206408   -2.0804748   0.26019289 
   36950   0.46170199    -2.605989  0.057995073   -2.0866767   0.22482949 
   37000   0.45211968   -2.5877755  0.058830001   -2.0772026   0.47124475 
   37050   0.45899731   -2.6008451  0.055784463   -2.0864458   0.30660699 
   37100   0.46140903   -2.5899929  0.054747897   -2.0742205   0.35770912 
   37150     0.451458   -2.5974968  0.066932299   -2.0794827   0.32988308 
   37200   0.45382121    -2.586107  0.057006216   -2.0756578   0.34767247 
   37250   0.45674156   -2.6033014  0.066056221   -2.0808842   0.21395365 
   37300   0.44872304    -2.595054   0.06839046   -2.0783144   0.31335193 
   37350   0.43494818   -2.5875232  0.070567668   -2.0823698   0.49255061 
   37400   0.44175587   -2.5846021  0.063305287   -2.0799091   0.44327654 
   37450   0.45595545   -2.5860253  0.057554815    -2.072895    0.3623773 
   37500   0.44151743   -2.5789069  0.064903647   -2.0728538   0.37230621 
   37550   0.46383449   -2.6023442  0.062096075   -2.0768002   0.33328728 
   37600         0.45   -2.6150971  0.058404797   -2.1070673   0.22074145 
   37650   0.44680414   -2.6180662  0.062880338   -2.1087541   0.16944992 
   37700         0.45   -2.6047402  0.062618225    -2.092497   0.38083457 
   37750   0.46283166   -2.6163059  0.057123334   -2.0967366   0.20038818 
   37800    0.4526476   -2.6031653   0.06481949   -2.0860754   0.30853988 
   37850   0.45458125   -2.6175213  0.063481907    -2.099837   0.40991354 
   37900   0.44736611   -2.5889088   0.06487449    -2.077041   0.40605547 
   37950   0.44716004   -2.5914491  0.056879394   -2.0877823   0.52762469 
   38000   0.45806982   -2.6042642  0.063881334   -2.0826948   0.30867823 
   38050   0.45785456   -2.6111225  0.066415941   -2.0872335   0.20118127 
   38100   0.43921655   -2.5898819  0.061740025   -2.0892913   0.42245346 
   38150   0.45037744    -2.597224  0.061028258   -2.0861936    0.3793618 
   38200   0.45457192   -2.6064706  0.069197561     -2.08308    0.2503549 
   38250   0.44824799   -2.6003186   0.05990062   -2.0925435   0.26622972 
   38300   0.45774859   -2.6115874  0.061302211   -2.0929181   0.20256067 
   38350   0.44235935   -2.6054855  0.065386356   -2.0981084   0.23352188 
   38400   0.43814829   -2.5856488  0.058200021   -2.0896656   0.38140695 
   38450   0.46399005   -2.5996489   0.05311734   -2.0829282    0.1920337 
   38500   0.45208549     -2.60023  0.061784806   -2.0867364   0.33508723 
   38550   0.45071365   -2.5957059  0.059740025   -2.0856279   0.33164062 
   38600   0.43892539    -2.589334  0.064842261   -2.0859321   0.36412628 
   38650   0.45389646   -2.6143974  0.063099076   -2.0977801   0.29294054 
   38700   0.45047903   -2.5955148  0.059616118   -2.0857951   0.32752065 
   38750   0.44869738   -2.6037868  0.066134868   -2.0893285   0.14655316 
   38800   0.45510739   -2.6035587  0.061057438   -2.0877731   0.22505074 
   38850   0.45245701   -2.5979787  0.058185762    -2.087713   0.30352028 
   38900         0.45   -2.6162794  0.063513703   -2.1031406   0.10623122 
   38950   0.43287249   -2.6107652  0.069477825   -2.1087756   0.22307485 
   39000   0.43827448   -2.6010451  0.062007692   -2.1011282    0.2667228 
   39050   0.43408277   -2.5968203  0.061755227   -2.1013441   0.26969804 
   39100    0.4491452   -2.6043786  0.054899568   -2.1007081   0.33322099 
   39150   0.45812565   -2.6143744   0.05519749   -2.1014331    0.2018037 
   39200   0.44925759   -2.6044818  0.056611451   -2.0989871   0.21092377 
   39250   0.42700426   -2.5928926  0.056047373   -2.1101968   0.29996364 
   39300         0.45   -2.5944559  0.057116209   -2.0877147   0.34015742 
   39350   0.47207403   -2.6039143  0.051668468   -2.0805652   0.29684788 
   39400   0.45717622   -2.6142525  0.056226706   -2.1012306   0.24503525 
   39450   0.46372197   -2.6167845  0.060924179   -2.0925248    0.3234324 
   39500   0.46615731   -2.6223925   0.06418217   -2.0924415   0.15726025 
   39550   0.45470662   -2.6060557  0.060380353   -2.0913476   0.15384566 
   39600   0.44639341   -2.6041001  0.057451248   -2.1006275   0.29102702 
   39650    0.4550399   -2.5964219  0.063275836   -2.0784853   0.23411082 
   39700   0.44978696   -2.6010101  0.066672103   -2.0849258   0.22474412 
   39750   0.46065878   -2.6084408  0.067380642   -2.0807852   0.24513588 
   39800    0.4423872   -2.5988969  0.068939983   -2.0879383   0.31146114 
   39850   0.44569392   -2.5917802  0.060610861   -2.0858468   0.37619776 
   39900   0.44893686   -2.5897641  0.060560975   -2.0806403   0.43547851 
   39950   0.47210284    -2.612726   0.05757666   -2.0834399   0.33457872 
   40000   0.45293012   -2.5992561  0.064845412    -2.081858   0.41636029 
   40050   0.45662714   -2.5966814  0.060669671   -2.0797651   0.35386705 
   40100   0.46122987   -2.6067665  0.062991515   -2.0829295   0.28192917 
   40150    0.4673507   -2.5965231  0.054309471   -2.0752524   0.20057641 
   40200   0.46256584   -2.5940247  0.055084152   -2.0767602   0.20700498 
   40250   0.43953895   -2.5792865  0.059414631   -2.0806992   0.38489559 
   40300   0.45307261    -2.595081  0.067147845   -2.0752381   0.30987643 
   40350   0.46212045   -2.5979641  0.062565982   -2.0736628   0.31384448 
   40400   0.45894416   -2.5892102  0.057583614   -2.0730649   0.41399019 
   40450   0.46516253   -2.5974429  0.054308978   -2.0783591   0.40109792 
   40500   0.44614693   -2.5850032  0.064315483   -2.0749126   0.48716997 
   40550   0.43731903    -2.604422  0.075225562   -2.0922418     0.410872 
   40600   0.45092241   -2.6153259  0.062195264    -2.102584   0.25632961 
   40650   0.46978962   -2.6095239  0.053983774    -2.086142   0.28497367 
   40700     0.455228   -2.6057275  0.068894401   -2.0819845   0.25370975 
   40750   0.47168068   -2.6199031   0.06308729   -2.0855282   0.18837297 
   40800   0.45721703   -2.6107353  0.064558604   -2.0893407   0.30550993 
   40850   0.45103201    -2.609575   0.07118987    -2.087729   0.27400507 
   40900   0.46175225   -2.6144166  0.056674039   -2.0963751   0.33580478 
   40950   0.45267021   -2.6047154   0.05890848   -2.0935139   0.37575288 
   41000   0.45121564   -2.5965842  0.061046689   -2.0846979   0.33019295 
   41050   0.44088679   -2.5997446   0.06516051   -2.0940647   0.25249265 
   41100   0.45644614   -2.6086409  0.056328176   -2.0962469   0.20328445 
   41150   0.46349728   -2.6125813  0.058729443   -2.0907408    0.1749733 
   41200   0.45568223   -2.6127388  0.067654239    -2.089782   0.15836728 
   41250   0.46496093   -2.6099257  0.059389803   -2.0859625   0.34501217 
   41300    0.4677888   -2.6070586  0.057252806   -2.0824068   0.29351742 
   41350   0.46488517   -2.6013613  0.056726531   -2.0801371    0.4585986 
   41400   0.44865053   -2.5948028  0.058425542   -2.0881006   0.47578701 
   41450   0.46929428   -2.6087777  0.058031635   -2.0818428   0.30803905 
   41500   0.44477723   -2.5918892  0.054731765   -2.0927509   0.51142061 
   41550   0.44482345   -2.5950966  0.059781191   -2.0908626   0.37850174 
   41600   0.45578252   -2.5955847  0.056844746   -2.0833372   0.46526937 
   41650   0.43884386   -2.5796861  0.058945851   -2.0822621      0.54029 
   41700   0.46779586    -2.600063  0.046725422   -2.0859316   0.36535829 
   41750   0.46414186   -2.6118686  0.061819777   -2.0862937   0.22659525 
   41800    0.4538131   -2.5949681  0.058013378   -2.0835198   0.35433268 
   41850   0.45945264   -2.6130868  0.056953479   -2.0970636   0.34227124 
   41900   0.45712269   -2.6017003  0.050785295   -2.0941732    0.5261858 
   41950   0.44625743   -2.5949376  0.057959145   -2.0910929    0.4845201 
   42000   0.44785664   -2.5932474  0.057591832   -2.0881722   0.45118533 
   42050   0.44951101   -2.6041934  0.054705152   -2.1003518    0.4147493 
   42100    0.4540514   -2.6009832  0.057138214   -2.0901719   0.20767242 
   42150   0.46586386    -2.606873  0.054882452   -2.0865149   0.10017059 
   42200    0.4461922   -2.5922652  0.059387494   -2.0870573   0.22662309 
   42250   0.45207269   -2.6080026  0.060803838   -2.0955028   0.26255441 
   42300   0.44757503   -2.5936144  0.060951535   -2.0854608     0.237076 
   42350   0.46828739   -2.6054707  0.055371081   -2.0822025   0.36189668 
   42400   0.44412062   -2.5916032  0.057671517   -2.0901811   0.41462519 
   42450   0.45870821   -2.6001585  0.057088379   -2.0847442   0.46006506 
   42500   0.45603172    -2.613477  0.064277521   -2.0935477    0.3602319 
   42550   0.46423533   -2.5927366  0.051585146    -2.077303   0.39487396 
   42600         0.45   -2.6184214  0.056490846   -2.1123055   0.26499757 
   42650    0.4461042   -2.6042604  0.056808835   -2.1017191   0.30384017 
   42700   0.45093019   -2.6142834  0.058399612   -2.1053293   0.27469368 
   42750   0.45080524   -2.6195965  0.058892162   -2.1102748   0.19994551 
   42800   0.45244478   -2.6118214  0.055934288   -2.1038194   0.37157549 
   42850   0.44610803   -2.6062464  0.052894551   -2.1076156   0.43473507 
   42900   0.46309129    -2.630715  0.065507634   -2.1025019    0.3192517 
   42950   0.43975159   -2.6002229  0.061695622   -2.0991421   0.61871571 
   43000   0.44009336    -2.605013  0.066025182   -2.0992612   0.40502788 
   43050   0.46179985    -2.623102  0.052583722   -2.1091033   0.38505682 
   43100   0.44636724   -2.6150504  0.063157096    -2.105898   0.30271291 
   43150   0.44835358   -2.6200438  0.058069157   -2.1139947   0.30490984 
   43200   0.44737033   -2.6133706  0.057485702   -2.1088874    0.3669245 
   43250   0.43933145   -2.6045864  0.058872651   -2.1067484   0.41677509 
   43300   0.45564164   -2.6092721  0.056792475   -2.0972177   0.26878395 
   43350   0.45918571    -2.616988  0.051926592   -2.1062584   0.28076151 
   43400   0.44895903    -2.622253  0.069193284   -2.1044748   0.25423829 
   43450   0.45730783   -2.6020271  0.051154725   -2.0939456   0.30511958 
   43500   0.45656378   -2.6173757  0.058377282   -2.1028151  0.091201325 
   43550   0.45055177   -2.6173669  0.067260624     -2.09993   0.12523003 
   43600   0.44707723   -2.6062721  0.058555887   -2.1010116   0.14625369 
   43650   0.42952037   -2.5983728  0.059763434   -2.1094469   0.24992503 
   43700   0.46161993   -2.6214927  0.056550915   -2.1037065   0.18345731 
   43750     0.437078   -2.5870729  0.053870508   -2.0964886   0.29951596 
   43800   0.43713481   -2.6039244  0.060641646   -2.1065122   0.28547439 
   43850   0.43794831   -2.6116834   0.07076159   -2.1033385   0.31168233 
   43900   0.46205545   -2.6336295   0.06998633   -2.1019728   0.12318218 
   43950   0.44951314   -2.6132478  0.058326537   -2.1057827   0.28007247 
   44000   0.43742599   -2.5934702  0.059048725     -2.09736     0.340478 
   44050    0.4435949   -2.6024143    0.0597441    -2.099445   0.28871361 
   44100    0.4630699   -2.6193934  0.062905653   -2.0938037   0.13537655 
   44150   0.44786154   -2.6186769  0.066977541   -2.1042111   0.24152199 
   44200   0.45532735   -2.6239568  0.060894861    -2.108114   0.30962968 
   44250   0.43472133   -2.5988095  0.057792493   -2.1066579   0.48969302 
   44300   0.44627411   -2.6010938  0.057019129   -2.0981725   0.20934118 
   44350   0.44365685    -2.612564   0.06586584    -2.103411   0.23225541 
   44400   0.44445987   -2.5976769  0.059951191   -2.0936363   0.28853233 
   44450   0.45690365   -2.6052861  0.049825853   -2.0989373   0.26008445 
   44500   0.44370295   -2.6049515  0.064348948   -2.0972693   0.35877352 
   44550   0.45263805   -2.6110297  0.057111992   -2.1016569   0.38024029 
   44600   0.45915935   -2.6130196  0.057057597   -2.0971853   0.33017434 
   44650   0.45327374   -2.6106509  0.052738273   -2.1050166   0.28250453 
   44700    0.4666004   -2.6251064  0.057731144   -2.1011637   0.18469288 
   44750   0.44953783   -2.6043505  0.058248011   -2.0969392   0.35630559 
   44800   0.45445083    -2.615306  0.063369046   -2.0978648   0.29358505 
   44850   0.46477327   -2.6243203  0.058972093   -2.1009622   0.19777713 
   44900    0.4531152   -2.6167226  0.058485077   -2.1054999   0.28074713 
   44950   0.46456287   -2.6144088  0.049686829   -2.1005463   0.34307828 
   45000   0.45608729   -2.6140672  0.054842641   -2.1035174    0.2667974 
   45050   0.45504227    -2.610685  0.058467905    -2.097554   0.33555002 
   45100   0.45507695   -2.6080256  0.051211361   -2.1021165   0.33391079 
   45150    0.4393304   -2.5975947  0.058703852   -2.0999265   0.36869028 
   45200    0.4494218    -2.610798  0.058429006   -2.1033217   0.34352273 
   45250   0.45000484   -2.6103627    0.0620209    -2.098712   0.36394861 
   45300   0.45577715   -2.6081052  0.057499328   -2.0952085   0.39189477 
   45350   0.44525863   -2.6160767   0.06191431   -2.1092748   0.43738816 
   45400   0.46187336   -2.6213317  0.062871058   -2.0969722   0.39093833 
   45450    0.4667466   -2.6259215  0.058113022   -2.1014508   0.32183796 
   45500   0.45320315   -2.6283511  0.064228081   -2.1112975   0.24425426 
   45550    0.4496158   -2.6255087  0.066203614    -2.110064   0.31731166 
   45600    0.4572569   -2.6183208  0.055054586   -2.1063904   0.30967316 
   45650   0.46375978   -2.6258744  0.050829494   -2.1116716   0.29621093 
   45700   0.45668666   -2.6217671  0.060173135   -2.1052879   0.24795069 
   45750   0.44763213   -2.6145274  0.066067414   -2.1012009   0.31936376 
   45800   0.45427798   -2.6228223  0.059804358   -2.1091185    0.3930956 
   45850   0.43867475   -2.5955816  0.055239368    -2.102033   0.47366292 
   45900   0.45624016   -2.6115004  0.047929107   -2.1077113   0.32566115 
   45950   0.45776886   -2.6224095  0.062003578   -2.1030186   0.26851345 
   46000   0.43939421   -2.6035412  0.061920618   -2.1025925   0.37987535 
   46050   0.44823482   -2.6110176  0.056028601   -2.1071277   0.33915376 
   46100   0.44606832   -2.6042965  0.059623627   -2.0989763   0.32333713 
   46150   0.45436047   -2.6246051  0.064172064   -2.1064512   0.20447991 
   46200   0.43150651   -2.6098598  0.069824896    -2.108888   0.41450109 
   46250   0.43658049   -2.6124211  0.064009199   -2.1121952   0.34495365 
   46300   0.44846859   -2.6145597  0.065971465   -2.1004934   0.37084346 
   46350   0.44645628   -2.6031886  0.055185985   -2.1019183     0.364878 
   46400   0.44416866    -2.616204  0.059709161   -2.1126963   0.21069877 
   46450   0.45841271   -2.6278779  0.058788204    -2.111059   0.15818161 
   46500   0.45298998   -2.6126696  0.058967334   -2.1010898   0.34404354 
   46550   0.45627749   -2.6270191  0.061751438   -2.1093704   0.27512692 
   46600   0.45050553   -2.6202605  0.069552258   -2.1005782   0.40604885 
   46650   0.45007221   -2.6301789  0.071121098   -2.1093607   0.27647911 
   46700   0.46965851     -2.64188  0.063033128   -2.1095797  0.025804877 
   46750   0.44819941   -2.6196152  0.060747842   -2.1110414   0.21542219 
   46800   0.43520725   -2.6007104  0.058128873   -2.1077369   0.31356243 
   46850   0.46234093   -2.6285215  0.055108782   -2.1114571 0.0004850937 
   46900   0.43476791   -2.5938738    0.0592876   -2.1001806   0.29413916 
   46950   0.45694621   -2.6156844  0.053880219   -2.1052387   0.14359967 
   47000   0.44206051   -2.6164632  0.070498595   -2.1042725   0.10362687 
   47050   0.42921209   -2.5946529   0.05784585   -2.1079527   0.30544861 
   47100   0.43517266   -2.6065367   0.05827018   -2.1134565   0.28350336 
   47150   0.44793615   -2.6217461  0.065699462   -2.1084838   0.11100852 
   47200   0.43974734   -2.6112324  0.058635638   -2.1132158   0.20267697 
   47250   0.44348698   -2.6157628  0.058715317   -2.1139301   0.16265889 
   47300         0.45   -2.5970746  0.059914251   -2.0875353   0.30253313 
   47350   0.47198454   -2.6186585    0.0550154   -2.0920518   0.14776758 
   47400   0.45990851   -2.5975273  0.054072129   -2.0839299   0.30294362 
   47450   0.45429516    -2.603995  0.061207794   -2.0888707   0.23099952 
   47500   0.45111407   -2.6049649  0.061054178   -2.0931726   0.37191379 
   47550   0.45107929   -2.6092442    0.0644013   -2.0941395    0.4019496 
   47600   0.45749025   -2.6162117  0.065271584   -2.0938311   0.30351831 
   47650   0.45405476   -2.6070819  0.064152393   -2.0892532   0.30683741 
   47700   0.46934404   -2.6093569  0.056994866   -2.0834091   0.22595823 
   47750   0.44611702   -2.5970433  0.062328928   -2.0889691   0.24347104 
   47800   0.44029488   -2.5930431  0.063386532   -2.0897286   0.43604785 
   47850   0.43537707   -2.5986485  0.074005658   -2.0896286   0.34279393 
   47900   0.45250304   -2.6040794  0.059414618   -2.0925388   0.22371148 
   47950   0.45654977   -2.6119107  0.057513227   -2.0982281   0.22634954 
   48000   0.45850509   -2.6170936  0.056269379   -2.1027012   0.23177306 
   48050    0.4548213   -2.6048018  0.051549229   -2.0988103   0.17579028 
   48100    0.4561446   -2.6011914   0.05268339   -2.0927435   0.30981194 
   48150   0.45036887   -2.6169282  0.067620547   -2.0993141   0.18900366 
   48200   0.45193986   -2.6025667  0.060100234   -2.0909032   0.29193433 
   48250    0.4504546   -2.6024032  0.060782903   -2.0915411   0.36245063 
   48300   0.44827478   -2.6088162  0.063116785   -2.0977982   0.38041566 
   48350   0.43682174   -2.5975566  0.070505177   -2.0905937   0.36922249 
   48400   0.45224545   -2.6025609  0.058071363   -2.0926209   0.29660122 
   48450   0.44792497   -2.6084599  0.063040631   -2.0978675   0.31701578 
   48500   0.45218666   -2.6101973  0.060014831   -2.0983727   0.48884853 
   48550   0.44632711   -2.5959925  0.060968133   -2.0890692   0.42400588 
   48600   0.44982563   -2.5923075  0.061642954   -2.0812138   0.45807272 
   48650   0.46019291    -2.618654  0.068015637   -2.0908289   0.30903247 
   48700   0.46044527   -2.6204121  0.065000749   -2.0953498    0.3145375 
   48750   0.44101383   -2.5855567  0.063880632   -2.0810297   0.46618367 
   48800   0.45270787   -2.5993908  0.060655727   -2.0864045    0.2602573 
   48850   0.47329395    -2.624339  0.058940571   -2.0924989   0.17609294 
   48900   0.43261502   -2.6014627   0.07598278   -2.0932255   0.37357416 
   48950   0.44417449   -2.6062735  0.069439355   -2.0930298    0.3582349 
   49000   0.45674364    -2.615172    0.0631708   -2.0956381   0.18381731 
   49050   0.45860902   -2.6225492  0.058475174   -2.1058472   0.34198906 
   49100   0.45374433   -2.6038929  0.059871016   -2.0906557    0.3938846 
   49150   0.44955596   -2.6107626   0.06269534   -2.0988859   0.27565702 
   49200    0.4495559   -2.5901619  0.053447999   -2.0875327   0.40507742 
   49250   0.45416485   -2.6061305  0.058953312   -2.0933908   0.36182487 
   49300   0.45466469   -2.6045432  0.065799745   -2.0844577   0.26084369 
   49350   0.48036637   -2.6235763    0.0620121   -2.0815981  0.082535325 
   49400   0.46404911   -2.6155818  0.067782975   -2.0841364     0.412318 
   49450    0.4520526   -2.6165158   0.06671927   -2.0981206   0.42221935 
   49500   0.45564949   -2.6079622   0.06107196   -2.0916205   0.36857712 
   49550   0.46214889   -2.6182345  0.067731789   -2.0887389   0.29034626 
   49600   0.44832058   -2.6010647  0.060666305   -2.0924515   0.38762019 
   49650   0.45559018   -2.6065977  0.058362838   -2.0930243   0.43017001 
   49700   0.46556769   -2.6070901  0.056967768   -2.0849426   0.47473731 
   49750   0.46825526   -2.6132748  0.061473896   -2.0839359   0.48196432 
   49800   0.44697819   -2.6067679  0.064486691   -2.0956755   0.51887626 
   49850   0.44017326   -2.6070643  0.067299416   -2.0999584   0.43251254 
   49900   0.44749364    -2.602069  0.069913579   -2.0850347   0.48540437 
[...]
   87550   0.44088928   -2.6230766  0.064835302   -2.1177194   0.22570542 
   87600   0.44624168   -2.6401674  0.061662633    -2.132635  0.078257889 
   87650   0.44295349   -2.6360011   0.06235475    -2.131062   0.19931712 
   87700   0.44706518   -2.6367073  0.055430617    -2.134584   0.10067793 
   87750   0.44491138   -2.6319903  0.060012027   -2.1274377  0.052824517 
   87800   0.44881339   -2.6347546   0.06139109   -2.1249241  0.077248623 
   87850   0.43640561    -2.632152  0.063901835   -2.1322082   0.17414745 
   87900   0.44886981   -2.6412644  0.063449122   -2.1293195  0.027837882 
   87950   0.42968787   -2.6134454  0.053947198   -2.1301684   0.35542173 
   88000   0.43524583   -2.6299637  0.055284209   -2.1397964   0.35006947 
   88050   0.43636235   -2.6408884  0.056965403   -2.1479243   0.19404204 
   88100   0.44858462   -2.6500803   0.05859204   -2.1432774   0.19342245 
   88150   0.44689431     -2.63364   0.05803146   -2.1290867    0.1855009 
   88200   0.44399778   -2.6370067  0.057385814   -2.1359931   0.12642862 
   88250   0.43784871   -2.6308002  0.066196196   -2.1271202   0.18515573 
   88300   0.44211309   -2.6260839  0.061217612   -2.1231216   0.12316754 
   88350   0.44847628   -2.6348358  0.062964114   -2.1237691   0.19101128 
   88400   0.43831279    -2.632659  0.061240025   -2.1334715  0.046860141 
   88450   0.44355354   -2.6307833  0.055202261   -2.1323971   0.21676626 
   88500   0.44429691   -2.6375585  0.055492874   -2.1381389  0.099475377 
   88550   0.43980841   -2.6339245  0.057219076   -2.1372635   0.14913393 
   88600   0.44967104   -2.6301236  0.051314614   -2.1295127   0.18484852 
   88650   0.44267668   -2.6301482  0.062358679   -2.1254817   0.19889609 
   88700   0.44986036   -2.6401406  0.054747739   -2.1359074   0.23720986 
   88750   0.44927179   -2.6378134  0.059418017    -2.129498  0.092935601 
   88800    0.4400142   -2.6293146  0.056536226   -2.1331309   0.23081217 
   88850   0.42726422   -2.6285789  0.065509981   -2.1361608   0.25855863 
   88900   0.43055595   -2.6279394  0.064747963   -2.1329943   0.19596241 
   88950   0.44012869   -2.6289654  0.061669132   -2.1275344  0.092065941 
   89000    0.4495545    -2.645796  0.066765524   -2.1298506   0.10719304 
   89050   0.41654876   -2.6085505  0.065593304   -2.1267555   0.23997725 
   89100    0.4473927   -2.6422711  0.064307562   -2.1309436 -0.0098575436 
   89150   0.43828607   -2.6301754  0.066158713   -2.1260958   0.14793576 
   89200    0.4461271   -2.6435168  0.062545489    -2.135216  0.062518099 
   89250   0.43885782   -2.6205552   0.05596202   -2.1261011   0.15165838 
   89300   0.44823977   -2.6410462  0.070263108   -2.1229169  0.037097453 
   89350   0.45913136   -2.6416089  0.053271611   -2.1295885   0.16567747 
   89400   0.43225467   -2.6206611  0.061453464   -2.1273132   0.27992024 
   89450   0.43956016    -2.633866  0.066402981   -2.1282692   0.14342328 
   89500   0.45645732   -2.6371278  0.054844924   -2.1262059    0.2385079 
   89550   0.45392658   -2.6359328  0.057339462   -2.1250451  0.080051679 
   89600   0.44560805   -2.6278295  0.063534119   -2.1190587   0.13639155 
   89650     0.436181   -2.6320805  0.073969962   -2.1222931  0.083837475 
   89700    0.4481766   -2.6232748  0.055613032   -2.1198587   0.15471096 
   89750   0.45444863   -2.6350946  0.056731904   -2.1242928   0.27281451 
   89800   0.44953885   -2.6484763  0.064110294   -2.1352018   0.10826563 
   89850   0.44540524   -2.6311307  0.058969792   -2.1271269   0.14734398 
   89900   0.43971082   -2.6175222  0.057426805    -2.120751    0.3027627 
   89950   0.45147558   -2.6247494  0.054531979   -2.1191181   0.12318669 
   90000   0.44365129   -2.6364344  0.062278385   -2.1308744   0.11080029 
   90050   0.44226972   -2.6453153  0.069907562   -2.1335066   0.12632569 
   90100   0.46168336   -2.6552258  0.062034707   -2.1318924  0.072103237 
   90150   0.46283877   -2.6457614  0.055603089   -2.1277052  0.091082895 
   90200    0.4521517   -2.6372424  0.063222257   -2.1222453   0.16415442 
   90250   0.45956238   -2.6418789  0.057642251   -2.1250572   0.22225054 
   90300   0.43999074   -2.6215052  0.056647931   -2.1252332   0.31054979 
   90350   0.44944298   -2.6303475  0.059197372   -2.1220817   0.34242552 
   90400   0.44659468   -2.6288585  0.060549504   -2.1220865   0.27649387 
   90450   0.45243493     -2.64449  0.061022877   -2.1314092   0.19681853 
   90500   0.44660359   -2.6365887  0.058720795   -2.1316365   0.13853765 
   90550   0.44440628   -2.6181239  0.055362904    -2.118725   0.20414375 
   90600   0.43736445   -2.6240998  0.058146224   -2.1289536   0.45480644 
   90650   0.44278943   -2.6504035  0.073278276   -2.1347048   0.14118457 
   90700   0.44731488   -2.6310205  0.056380954   -2.1276975   0.33131515 
   90750   0.43264621   -2.6236591  0.062728277   -2.1286452   0.43715174 
   90800   0.43912447   -2.6330287  0.064397429   -2.1298728   0.27869804 
   90850   0.43892274   -2.6193274  0.061207713   -2.1195628   0.34546868 
   90900   0.46611391   -2.6565272  0.059362213   -2.1314395   0.24269009 
   90950   0.45561338   -2.6358217  0.062237297   -2.1183507   0.22237046 
   91000   0.45983055   -2.6432479   0.06134534   -2.1224552  0.029003067 
   91050   0.45316749   -2.6435885  0.063593993   -2.1272047  0.090650299 
   91100   0.44810131   -2.6253697  0.060595853   -2.1170459   0.19158829 
   91150   0.45787714   -2.6298235  0.056632367   -2.1156955  0.023722736 
   91200         0.45   -2.6132288  0.065768959   -2.0978349  0.090432895 
   91250   0.45656921   -2.6194074  0.059639143   -2.1035795   0.31917122 
   91300   0.43832171   -2.6213911  0.073220382   -2.1102143   0.21180815 
   91350   0.42897093    -2.605551   0.06568322   -2.1112543   0.45900308 
   91400   0.44055437   -2.6049634  0.063044994   -2.1017312   0.30916522 
   91450   0.46850463   -2.6372999  0.062773949   -2.1064118   0.23792861 
   91500    0.4456336   -2.6290767  0.072376586   -2.1114379   0.19305173 
   91550   0.46865313   -2.6408886  0.061669378   -2.1109566   0.17218999 
   91600   0.45913947   -2.6188357   0.05959396   -2.1004848   0.32438372 
   91650   0.44977467   -2.6147091  0.055753088   -2.1095561   0.20749543 
   91700   0.46260554   -2.6298464   0.05843418   -2.1091922   0.08174331 
   91750    0.4250515   -2.6134667  0.076774912   -2.1119945   0.29890282 
   91800   0.44809738   -2.6216721  0.064071812   -2.1098763   0.23933698 
   91850   0.43986167   -2.6187818  0.070088918   -2.1091978    0.2513346 
   91900   0.46111589    -2.633398  0.064457488   -2.1082089    0.3355684 
   91950   0.46157922   -2.6355043  0.067676728    -2.106633   0.22876297 
   92000   0.44879889   -2.6172003  0.065161532   -2.1036139   0.42943749 
   92050   0.45769448   -2.6377447  0.069258547    -2.111173   0.38456172 
   92100   0.44698959   -2.6292356  0.074807075   -2.1078114   0.40597141 
   92150   0.45505884   -2.6231122  0.065331677   -2.1031009   0.28570539 
   92200   0.46968382    -2.632673  0.058694713   -2.1046858   0.16763736 
   92250    0.4385257   -2.6028515  0.058892911   -2.1057983   0.34968591 
   92300         0.45   -2.6334344  0.058909729   -2.1248996 -0.0050662206 
   92350   0.43123164   -2.6208777  0.060420205   -2.1295852   0.09851464 
   92400         0.45   -2.6047367  0.057688333   -2.0974234    0.2867755 
   92450   0.45277966   -2.6135964  0.061649935   -2.0995441   0.27456541 
   92500    0.4659496   -2.6159057   0.05869619   -2.0916482   0.19674477 
   92550   0.46419462   -2.6275365  0.061444373   -2.1022843  0.097266034 
   92600   0.46502915   -2.6242232  0.063825414   -2.0957562   0.32756085 
   92650   0.45750441    -2.619061  0.064243997   -2.0976938   0.24984439 
   92700   0.45792313   -2.6103155  0.058196859   -2.0945771   0.32230321 
   92750   0.45208169   -2.6047317  0.061671853   -2.0913549   0.28199133 
   92800    0.4687879   -2.6299974  0.053790682   -2.1078095 -0.0049127836 
   92850   0.46597193   -2.6253775   0.05935962   -2.1004343   0.20682614 
   92900   0.45908858   -2.6269377  0.058450968   -2.1097807   0.21162086 
   92950   0.46556165   -2.6107834  0.044952866   -2.1006569   0.15849899 
   93000   0.45973863   -2.6245418  0.055324807   -2.1098615   0.17002091 
   93050   0.46334698   -2.6207533  0.049063416    -2.108729     0.180927 
   93100   0.45783297   -2.6206245  0.058759987   -2.1044131    0.2696561 
   93150   0.45059985   -2.6152895  0.061728082    -2.103337   0.19688688 
   93200   0.45153497   -2.6239828  0.070651889   -2.1021722   0.24415698 
   93250   0.45751812   -2.6148741  0.055990161    -2.101747    0.2549555 
   93300   0.44618959   -2.6130113  0.062835805   -2.1043577   0.30308968 
   93350   0.47977753    -2.649479  0.062846281    -2.107255  0.021833662 
   93400   0.45149625   -2.6179543  0.062109721   -2.1047246   0.22089083 
   93450   0.43606775   -2.6046521  0.064712034   -2.1042357   0.28956044 
   93500   0.45711799   -2.6183953  0.052687195    -2.108971   0.16233924 
   93550   0.45582163   -2.6228705  0.059755455   -2.1076732   0.15786464 
   93600   0.45342115   -2.6244974  0.063138019   -2.1083161 -0.011165496 
   93650   0.44920893   -2.6196422  0.059723073   -2.1110845   0.28839828 
   93700    0.4464869   -2.6156883  0.067162696   -2.1024107    0.2042636 
   93750   0.45924014   -2.6302005  0.065509541   -2.1058336  0.097902697 
   93800   0.45634374   -2.6176123  0.062738559   -2.0989103   0.20015318 
   93850   0.46465732   -2.6170409   0.05897552   -2.0937953    0.2387451 
   93900   0.45766049    -2.612084  0.054847041   -2.0999578   0.28996589 
   93950   0.44361309   -2.6130966  0.064297916   -2.1055553   0.33160842 
   94000   0.44930739   -2.6155602  0.062762176   -2.1038651   0.19399221 
   94050    0.4618359   -2.6277746  0.056058414   -2.1102651   0.26212632 
   94100   0.46049986   -2.6296168  0.065234986   -2.1042657  0.050171647 
   94150   0.45839348   -2.6338429  0.069709427    -2.106122  0.087256639 
   94200   0.45956421   -2.6361378  0.063397144   -2.1135594  0.095595585 
   94250   0.44474056    -2.612563  0.061457264   -2.1067358  0.070122251 
   94300   0.46946361   -2.6359848  0.064764029   -2.1021484    0.1086167 
   94350   0.44980597   -2.6067219  0.059594098   -2.0976967   0.40428025 
   94400   0.45171355   -2.6248133  0.068284327   -2.1051918    0.2089162 
   94450   0.46727514   -2.6350685  0.060244209   -2.1079385  0.053693863 
   94500   0.45318925   -2.6192156  0.057900661   -2.1085033   0.10028213 
   94550   0.44298434   -2.6026925  0.056411142   -2.1036661   0.31977435 
   94600    0.4412174   -2.6157675  0.066258947   -2.1086589   0.29292426 
   94650   0.44691196   -2.6160425  0.055562662   -2.1139403   0.22997907 
   94700   0.45734311   -2.6199155  0.058796936   -2.1041566   0.17053142 
   94750   0.44660059   -2.6223431  0.052451177   -2.1236635    0.1503781 
   94800   0.44063786   -2.6092263  0.054504123   -2.1144515   0.19830869 
   94850   0.43921686   -2.6072459  0.053426918   -2.1149681   0.43782983 
   94900   0.45087258   -2.6259556  0.059966192   -2.1154926   0.30242515 
   94950   0.44664833   -2.6083451   0.06188234   -2.1001867   0.24496643 
   95000   0.46023839   -2.6317148  0.057655661   -2.1142043  0.068160297 
   95050   0.46227861   -2.6234483  0.058741926    -2.102813   0.19312399 
   95100   0.44623254   -2.6218632  0.068534972   -2.1074675   0.19861276 
   95150   0.45775167   -2.6235989  0.060087276   -2.1061414   0.23487492 
   95200   0.46619836   -2.6353357  0.062493925    -2.107032  0.022942735 
   95250   0.45759195   -2.6275073  0.061888837   -2.1084078   0.17789967 
   95300   0.45020692   -2.6212514  0.060198733   -2.1112209  0.099923345 
   95350   0.43791194   -2.6046167  0.059449578   -2.1076201   0.20231264 
   95400   0.44241838   -2.6098838  0.061849183   -2.1059849   0.16936789 
   95450   0.44772642   -2.6094132  0.060410179   -2.1016497   0.14561805 
   95500   0.45950534   -2.6278682   0.06565377    -2.103092  0.094010631 
   95550   0.44905708   -2.6052951  0.054101499   -2.1025107   0.29736931 
   95600   0.46181703   -2.6124391  0.052902371   -2.0981046   0.11819488 
   95650   0.47482507   -2.6286298  0.056640462     -2.09756   0.19982198 
   95700   0.45688103   -2.6196248  0.058842523    -2.104282   0.31760819 
   95750   0.46000892   -2.6299551  0.067416734   -2.1029128    0.1352774 
   95800   0.45607681   -2.6287046  0.063104992   -2.1099028   0.29815165 
   95850   0.45638464   -2.6265365  0.063919521   -2.1066126   0.23973783 
   95900    0.4331924   -2.5959172  0.058175197   -2.1049106   0.35924971 
   95950   0.45881015   -2.6269679  0.062839662   -2.1057004   0.24658269 
   96000   0.45757273   -2.6217055  0.067332003    -2.097182    0.3011434 
   96050     0.450821   -2.6120979  0.065075101   -2.0965775   0.22133396 
   96100   0.44805602   -2.5969046  0.051435059   -2.0977869   0.29460109 
   96150    0.4465803   -2.6005569   0.05739692   -2.0969519     0.217324 
   96200     0.442817   -2.6123134  0.065279003   -2.1045864   0.20783542 
   96250   0.44152897   -2.6050413   0.05748707   -2.1063932   0.43452154 
   96300   0.46468109   -2.6252031  0.054485385   -2.1064239   0.27573394 
   96350   0.46737215   -2.6358674   0.07172338   -2.0971614   0.17206962 
   96400   0.45607381   -2.6214414  0.068499403   -2.0972482    0.2316104 
   96450   0.45812515   -2.6236373  0.068944752   -2.0969492   0.20918951 
   96500   0.45802648   -2.6177594   0.05990293   -2.1002116   0.33332705 
   96550   0.45580074   -2.6184235  0.064635166   -2.0983674   0.23441721 
   96600   0.45796503    -2.625476  0.062162459   -2.1057302   0.18460852 
   96650   0.46962871   -2.6347476  0.063764161   -2.1017461  0.048085365 
   96700    0.4603374    -2.628045  0.064916507   -2.1031747  0.091382868 
   96750   0.43378127   -2.6204855  0.074029553   -2.1130362   0.31343614 
   96800   0.44716728   -2.6125294   0.06254667   -2.1031881   0.23893351 
   96850   0.46459687   -2.6319077  0.062953021    -2.104745  0.058885361 
   96900   0.46733654   -2.6296089  0.057894709   -2.1047671   0.19636677 
   96950   0.45390895   -2.6154015  0.059231551   -2.1026393   0.18538358 
   97000   0.45486495    -2.626715   0.06425083   -2.1079783    0.1743939 
   97050   0.45944894   -2.6245233  0.060390785   -2.1050665  0.080226907 
   97100   0.45837424   -2.6385147  0.070598073   -2.1099244  0.079189829 
   97150    0.4564129   -2.6265867  0.061492222   -2.1090619   0.20538021 
   97200   0.44718853   -2.6184456  0.066755369   -2.1048743   0.19202171 
   97250   0.44374729   -2.6123485  0.067535166   -2.1014358   0.21879966 
   97300   0.43392668    -2.603634  0.069794666   -2.1002742   0.35426568 
   97350   0.46267666   -2.6303959  0.059168357   -2.1089364   0.18340291 
   97400   0.45698395   -2.6209213  0.064639691   -2.0996784    0.2435076 
   97450   0.45457381   -2.6182078  0.068193509   -2.0958193   0.32024526 
   97500   0.46921498   -2.6257482  0.059659572   -2.0972647   0.19930841 
   97550   0.45789863    -2.612939  0.057649254   -2.0977727   0.29445313 
   97600   0.46753769   -2.6268734  0.055851732   -2.1038736   0.18485137 
   97650   0.44246907   -2.5964133  0.053457973    -2.100855   0.40383155 
   97700   0.44810951   -2.6087529  0.057309033   -2.1037077   0.19323851 
   97750   0.43755876   -2.6082713  0.064771595   -2.1063056   0.18194148 
   97800   0.45368452   -2.6239685  0.068853843   -2.1018082  0.074014209 
   97850   0.45799219   -2.6131912  0.059161975   -2.0964187  0.085336367 
   97900   0.46127226   -2.6346977  0.070977887   -2.1028319 0.0054416502 
   97950   0.42898349   -2.5869742   0.06850873   -2.0898394   0.41410128 
   98000   0.46375033    -2.623974  0.057704442   -2.1029057   0.32015525 
   98050   0.45193368   -2.6138572  0.058697926   -2.1036022   0.38237906 
   98100   0.45636702   -2.6284343  0.062190542    -2.110257   0.20668469 
   98150    0.4496078   -2.6069282  0.055738995    -2.101956   0.29543395 
   98200   0.45173452   -2.6181012  0.058548117    -2.108195   0.27982827 
   98250   0.44121676   -2.6084623  0.058167206    -2.109446   0.37598486 
   98300    0.4610085   -2.6354075  0.055880253    -2.118903   0.16864321 
   98350     0.462391   -2.6318651  0.057439344   -2.1124201   0.23099722 
   98400   0.46433172   -2.6321803  0.059914181   -2.1083213   0.16448526 
   98450   0.45827909   -2.6359573   0.06637791   -2.1116822   0.21905562 
   98500   0.46369811   -2.6289104   0.05840762   -2.1071911   0.26578233 
   98550    0.4626422    -2.637936  0.069182466   -2.1064969   0.30334174 
   98600         0.45   -2.6472234  0.064993706   -2.1326047   0.17430767 
   98650   0.43139787   -2.6325093  0.061849756   -2.1396212   0.30559429 
   98700   0.44518693   -2.6365835  0.060081853   -2.1316857   0.14710933 
   98750   0.44136157   -2.6380532  0.059790943   -2.1372685   0.12637478 
   98800         0.45    -2.629304  0.069049981    -2.110629   0.15091472 
   98850    0.4476828   -2.6144192  0.070671534   -2.0964379   0.25345572 
   98900   0.45891809   -2.6235665  0.061850214   -2.1031806   0.20012035 
   98950   0.45990943   -2.6067869  0.052703659   -2.0945571   0.13989975 
   99000   0.45495848   -2.6292067  0.067133243   -2.1074941   0.13293005 
   99050   0.45247228   -2.6294329  0.070468655   -2.1068691   0.10019881 
   99100   0.46365149   -2.6257173  0.061074408   -2.1013778  0.068745007 
   99150   0.44322605    -2.613887  0.061234108   -2.1097962   0.31988928 
   99200   0.45769872   -2.6240776  0.057972647   -2.1087876   0.24783137 
   99250   0.46633058    -2.642284  0.067911027    -2.108431   0.15236517 
   99300    0.4457656   -2.6123894  0.053339479   -2.1136558   0.33092556 
   99350   0.45444527    -2.614544  0.057931673   -2.1025458   0.18094776 
   99400   0.45503756   -2.6285846  0.061230578   -2.1126956   0.18797132 
   99450   0.47850061   -2.6378077  0.051572562   -2.1081333   0.18136732 
   99500   0.45574542   -2.6243512  0.058411483   -2.1105741   0.31869926 
   99550   0.45373963   -2.6273642  0.063108622   -2.1108941   0.34011543 
   99600   0.46854385   -2.6401974  0.061539487   -2.1105045   0.16708626 
   99650    0.4584285   -2.6186702  0.058670405   -2.1019533   0.24029131 
   99700   0.46664179   -2.6281643  0.059479572   -2.1024318   0.18631332 
   99750   0.45725913   -2.6243382  0.070548283   -2.0969119  0.085070712 
   99800   0.45114064   -2.6228967  0.067640233   -2.1044917   0.21300905 
   99850   0.46892684   -2.6436062  0.064112395   -2.1109577  0.059663805 
   99900   0.46069615   -2.6270263  0.062106074    -2.104608    0.3767015 
   99950   0.45878495   -2.6397487  0.069739066    -2.111607   0.17054117 
  100000   0.46111829   -2.6231068  0.062509555   -2.0998632   0.24690119 
Loop time of 6.39811 on 4 procs for 100000 steps with 1200 atoms

Performance: 6751992.510 tau/day, 15629.612 timesteps/s
99.5% CPU use with 4 MPI tasks x no OpenMP threads

MPI task timing breakdown:
Section |  min time  |  avg time  |  max time  |%varavg| %total
---------------------------------------------------------------
Pair    | 3.5121     | 3.5576     | 3.5758     |   1.4 | 55.60
Bond    | 0.14933    | 0.17739    | 0.19798    |   4.7 |  2.77
Neigh   | 0.97583    | 0.97699    | 0.97821    |   0.1 | 15.27
Comm    | 0.85639    | 0.89503    | 0.92023    |   2.6 | 13.99
Output  | 0.16825    | 0.17029    | 0.17633    |   0.8 |  2.66
Modify  | 0.40396    | 0.412      | 0.42316    |   1.1 |  6.44
Other   |            | 0.2089     |            |       |  3.26

Nlocal:        300.000 ave         320 max         284 min
Histogram: 1 1 0 0 0 0 1 0 0 1
Nghost:        217.500 ave         228 max         202 min
Histogram: 1 0 0 1 0 0 0 0 0 2
Neighs:        2471.00 ave        2680 max        2344 min
Histogram: 1 1 0 0 1 0 0 0 0 1

Total # of neighbors = 9884
Ave neighs/atom = 8.2366667
Ave special neighs/atom = 0.50000000
Neighbor list builds = 8132
Dangerous builds = 0
Total wall time: 0:00:06
