ITEM: TIMESTEP
0
ITEM: NUMBER OF ATOMS
420
ITEM: BOX BOUNDS pp ss pp
0.0000000000000000e+00 2.2653923264628304e+01
-1.9618873042551413e-03 1.9620834929855668e+01
-2.8317404080785380e-01 2.8317404080785380e-01
ITEM: ATOMS id type xs ys zs
1 2 0 9.998e-05 0.5
2 2 0.025 0.05009 0.5
3 2 0.05 9.998e-05 0.5
4 2 0.075 0.05009 0.5
5 2 0.1 9.998e-05 0.5
6 2 0.125 0.05009 0.5
7 2 0.15 9.998e-05 0.5
8 2 0.175 0.05009 0.5
9 2 0.2 9.998e-05 0.5
10 2 0.225 0.05009 0.5
11 2 0.25 9.998e-05 0.5
12 2 0.275 0.05009 0.5
13 2 0.3 9.998e-05 0.5
14 2 0.325 0.05009 0.5
15 2 0.35 9.998e-05 0.5
16 2 0.375 0.05009 0.5
17 2 0.4 9.998e-05 0.5
18 2 0.425 0.05009 0.5
19 2 0.45 9.998e-05 0.5
20 2 0.475 0.05009 0.5
21 2 0 0.10008 0.5
23 2 0.05 0.10008 0.5
25 2 0.1 0.10008 0.5
27 2 0.15 0.10008 0.5
29 2 0.2 0.10008 0.5
31 2 0.25 0.10008 0.5
33 2 0.3 0.10008 0.5
35 2 0.35 0.10008 0.5
37 2 0.4 0.10008 0.5
39 2 0.45 0.10008 0.5
22 1 0.025 0.15007 0.5
41 1 0 0.20006 0.5
43 1 0.05 0.20006 0.5
24 1 0.075 0.15007 0.5
45 1 0.1 0.20006 0.5
26 1 0.125 0.15007 0.5
28 1 0.175 0.15007 0.5
47 1 0.15 0.20006 0.5
30 1 0.225 0.15007 0.5
49 1 0.2 0.20006 0.5
32 1 0.275 0.15007 0.5
51 1 0.25 0.20006 0.5
53 1 0.3 0.20006 0.5
34 1 0.325 0.15007 0.5
55 1 0.35 0.20006 0.5
36 1 0.375 0.15007 0.5
38 1 0.425 0.15007 0.5
57 1 0.4 0.20006 0.5
40 1 0.475 0.15007 0.5
59 1 0.45 0.20006 0.5
42 1 0.025 0.25005 0.5
44 1 0.075 0.25005 0.5
46 1 0.125 0.25005 0.5
48 1 0.175 0.25005 0.5
50 1 0.225 0.25005 0.5
52 1 0.275 0.25005 0.5
54 1 0.325 0.25005 0.5
56 1 0.375 0.25005 0.5
58 1 0.425 0.25005 0.5
60 1 0.475 0.25005 0.5
61 1 0 0.30004 0.5
62 1 0.025 0.35003 0.5
63 1 0.05 0.30004 0.5
64 1 0.075 0.35003 0.5
65 1 0.1 0.30004 0.5
66 1 0.125 0.35003 0.5
67 1 0.15 0.30004 0.5
68 1 0.175 0.35003 0.5
69 1 0.2 0.30004 0.5
70 1 0.225 0.35003 0.5
71 1 0.25 0.30004 0.5
72 1 0.275 0.35003 0.5
73 1 0.3 0.30004 0.5
74 1 0.325 0.35003 0.5
75 1 0.35 0.30004 0.5
76 1 0.375 0.35003 0.5
77 1 0.4 0.30004 0.5
78 1 0.425 0.35003 0.5
79 1 0.45 0.30004 0.5
80 1 0.475 0.35003 0.5
81 1 0 0.40002 0.5
83 1 0.05 0.40002 0.5
85 1 0.1 0.40002 0.5
87 1 0.15 0.40002 0.5
89 1 0.2 0.40002 0.5
91 1 0.25 0.40002 0.5
93 1 0.3 0.40002 0.5
95 1 0.35 0.40002 0.5
97 1 0.4 0.40002 0.5
99 1 0.45 0.40002 0.5
82 1 0.025 0.45001 0.5
84 1 0.075 0.45001 0.5
86 1 0.125 0.45001 0.5
88 1 0.175 0.45001 0.5
90 1 0.225 0.45001 0.5
92 1 0.275 0.45001 0.5
94 1 0.325 0.45001 0.5
96 1 0.375 0.45001 0.5
98 1 0.425 0.45001 0.5
100 1 0.475 0.45001 0.5
101 1 0 0.5 0.5
102 1 0.025 0.54999 0.5
103 1 0.05 0.5 0.5
104 1 0.075 0.54999 0.5
105 1 0.1 0.5 0.5
106 1 0.125 0.54999 0.5
107 1 0.15 0.5 0.5
108 1 0.175 0.54999 0.5
109 1 0.2 0.5 0.5
110 1 0.225 0.54999 0.5
111 1 0.25 0.5 0.5
112 1 0.275 0.54999 0.5
113 1 0.3 0.5 0.5
114 1 0.325 0.54999 0.5
115 1 0.35 0.5 0.5
116 1 0.375 0.54999 0.5
117 1 0.4 0.5 0.5
118 1 0.425 0.54999 0.5
119 1 0.45 0.5 0.5
120 1 0.475 0.54999 0.5
121 1 0 0.59998 0.5
123 1 0.05 0.59998 0.5
125 1 0.1 0.59998 0.5
127 1 0.15 0.59998 0.5
129 1 0.2 0.59998 0.5
131 1 0.25 0.59998 0.5
133 1 0.3 0.59998 0.5
135 1 0.35 0.59998 0.5
137 1 0.4 0.59998 0.5
139 1 0.45 0.59998 0.5
122 1 0.025 0.64997 0.5
141 1 0 0.69996 0.5
143 1 0.05 0.69996 0.5
124 1 0.075 0.64997 0.5
145 1 0.1 0.69996 0.5
126 1 0.125 0.64997 0.5
128 1 0.175 0.64997 0.5
147 1 0.15 0.69996 0.5
130 1 0.225 0.64997 0.5
149 1 0.2 0.69996 0.5
132 1 0.275 0.64997 0.5
151 1 0.25 0.69996 0.5
153 1 0.3 0.69996 0.5
134 1 0.325 0.64997 0.5
155 1 0.35 0.69996 0.5
136 1 0.375 0.64997 0.5
138 1 0.425 0.64997 0.5
157 1 0.4 0.69996 0.5
140 1 0.475 0.64997 0.5
159 1 0.45 0.69996 0.5
142 1 0.025 0.74995 0.5
144 1 0.075 0.74995 0.5
146 1 0.125 0.74995 0.5
148 1 0.175 0.74995 0.5
150 1 0.225 0.74995 0.5
152 1 0.275 0.74995 0.5
154 1 0.325 0.74995 0.5
156 1 0.375 0.74995 0.5
158 1 0.425 0.74995 0.5
160 1 0.475 0.74995 0.5
161 1 0 0.79994 0.5
162 1 0.025 0.84993 0.5
163 1 0.05 0.79994 0.5
164 1 0.075 0.84993 0.5
165 1 0.1 0.79994 0.5
166 1 0.125 0.84993 0.5
167 1 0.15 0.79994 0.5
168 1 0.175 0.84993 0.5
169 1 0.2 0.79994 0.5
170 1 0.225 0.84993 0.5
171 1 0.25 0.79994 0.5
172 1 0.275 0.84993 0.5
173 1 0.3 0.79994 0.5
174 1 0.325 0.84993 0.5
175 1 0.35 0.79994 0.5
176 1 0.375 0.84993 0.5
177 1 0.4 0.79994 0.5
178 1 0.425 0.84993 0.5
179 1 0.45 0.79994 0.5
180 1 0.475 0.84993 0.5
181 1 0 0.89992 0.5
183 1 0.05 0.89992 0.5
185 1 0.1 0.89992 0.5
187 1 0.15 0.89992 0.5
189 1 0.2 0.89992 0.5
191 1 0.25 0.89992 0.5
193 1 0.3 0.89992 0.5
195 1 0.35 0.89992 0.5
197 1 0.4 0.89992 0.5
199 1 0.45 0.89992 0.5
182 1 0.025 0.94991 0.5
201 1 0 0.9999 0.5
202 1 0.05 0.9999 0.5
184 1 0.075 0.94991 0.5
203 1 0.1 0.9999 0.5
186 1 0.125 0.94991 0.5
188 1 0.175 0.94991 0.5
204 1 0.15 0.9999 0.5
190 1 0.225 0.94991 0.5
205 1 0.2 0.9999 0.5
192 1 0.275 0.94991 0.5
206 1 0.25 0.9999 0.5
207 1 0.3 0.9999 0.5
194 1 0.325 0.94991 0.5
208 1 0.35 0.9999 0.5
196 1 0.375 0.94991 0.5
198 1 0.425 0.94991 0.5
209 1 0.4 0.9999 0.5
200 1 0.475 0.94991 0.5
210 1 0.45 0.9999 0.5
211 2 0.5 9.998e-05 0.5
212 2 0.525 0.05009 0.5
213 2 0.55 9.998e-05 0.5
214 2 0.575 0.05009 0.5
215 2 0.6 9.998e-05 0.5
216 2 0.625 0.05009 0.5
217 2 0.65 9.998e-05 0.5
218 2 0.675 0.05009 0.5
219 2 0.7 9.998e-05 0.5
220 2 0.725 0.05009 0.5
221 2 0.75 9.998e-05 0.5
222 2 0.775 0.05009 0.5
223 2 0.8 9.998e-05 0.5
224 2 0.825 0.05009 0.5
225 2 0.85 9.998e-05 0.5
226 2 0.875 0.05009 0.5
227 2 0.9 9.998e-05 0.5
228 2 0.925 0.05009 0.5
229 2 0.95 9.998e-05 0.5
230 2 0.975 0.05009 0.5
231 2 0.5 0.10008 0.5
233 2 0.55 0.10008 0.5
235 2 0.6 0.10008 0.5
237 2 0.65 0.10008 0.5
239 2 0.7 0.10008 0.5
241 2 0.75 0.10008 0.5
243 2 0.8 0.10008 0.5
245 2 0.85 0.10008 0.5
247 2 0.9 0.10008 0.5
249 2 0.95 0.10008 0.5
232 1 0.525 0.15007 0.5
251 1 0.5 0.20006 0.5
253 1 0.55 0.20006 0.5
234 1 0.575 0.15007 0.5
255 1 0.6 0.20006 0.5
236 1 0.625 0.15007 0.5
238 1 0.675 0.15007 0.5
257 1 0.65 0.20006 0.5
240 1 0.725 0.15007 0.5
259 1 0.7 0.20006 0.5
242 1 0.775 0.15007 0.5
261 1 0.75 0.20006 0.5
263 1 0.8 0.20006 0.5
244 1 0.825 0.15007 0.5
265 1 0.85 0.20006 0.5
246 1 0.875 0.15007 0.5
248 1 0.925 0.15007 0.5
267 1 0.9 0.20006 0.5
250 1 0.975 0.15007 0.5
269 1 0.95 0.20006 0.5
252 1 0.525 0.25005 0.5
254 1 0.575 0.25005 0.5
256 1 0.625 0.25005 0.5
258 1 0.675 0.25005 0.5
260 1 0.725 0.25005 0.5
262 1 0.775 0.25005 0.5
264 1 0.825 0.25005 0.5
266 1 0.875 0.25005 0.5
268 1 0.925 0.25005 0.5
270 1 0.975 0.25005 0.5
271 1 0.5 0.30004 0.5
272 1 0.525 0.35003 0.5
273 1 0.55 0.30004 0.5
274 1 0.575 0.35003 0.5
275 1 0.6 0.30004 0.5
276 1 0.625 0.35003 0.5
277 1 0.65 0.30004 0.5
278 1 0.675 0.35003 0.5
279 1 0.7 0.30004 0.5
280 1 0.725 0.35003 0.5
281 1 0.75 0.30004 0.5
282 1 0.775 0.35003 0.5
283 1 0.8 0.30004 0.5
284 1 0.825 0.35003 0.5
285 1 0.85 0.30004 0.5
286 1 0.875 0.35003 0.5
287 1 0.9 0.30004 0.5
288 1 0.925 0.35003 0.5
289 1 0.95 0.30004 0.5
290 1 0.975 0.35003 0.5
291 1 0.5 0.40002 0.5
293 1 0.55 0.40002 0.5
295 1 0.6 0.40002 0.5
297 1 0.65 0.40002 0.5
299 1 0.7 0.40002 0.5
301 1 0.75 0.40002 0.5
303 1 0.8 0.40002 0.5
305 1 0.85 0.40002 0.5
307 1 0.9 0.40002 0.5
309 1 0.95 0.40002 0.5
292 1 0.525 0.45001 0.5
294 1 0.575 0.45001 0.5
296 1 0.625 0.45001 0.5
298 1 0.675 0.45001 0.5
300 1 0.725 0.45001 0.5
302 1 0.775 0.45001 0.5
304 1 0.825 0.45001 0.5
306 1 0.875 0.45001 0.5
308 1 0.925 0.45001 0.5
310 1 0.975 0.45001 0.5
311 1 0.5 0.5 0.5
312 1 0.525 0.54999 0.5
313 1 0.55 0.5 0.5
314 1 0.575 0.54999 0.5
315 1 0.6 0.5 0.5
316 1 0.625 0.54999 0.5
317 1 0.65 0.5 0.5
318 1 0.675 0.54999 0.5
319 1 0.7 0.5 0.5
320 1 0.725 0.54999 0.5
321 1 0.75 0.5 0.5
322 1 0.775 0.54999 0.5
323 1 0.8 0.5 0.5
324 1 0.825 0.54999 0.5
325 1 0.85 0.5 0.5
326 1 0.875 0.54999 0.5
327 1 0.9 0.5 0.5
328 1 0.925 0.54999 0.5
329 1 0.95 0.5 0.5
330 1 0.975 0.54999 0.5
331 1 0.5 0.59998 0.5
333 1 0.55 0.59998 0.5
335 1 0.6 0.59998 0.5
337 1 0.65 0.59998 0.5
339 1 0.7 0.59998 0.5
341 1 0.75 0.59998 0.5
343 1 0.8 0.59998 0.5
345 1 0.85 0.59998 0.5
347 1 0.9 0.59998 0.5
349 1 0.95 0.59998 0.5
332 1 0.525 0.64997 0.5
351 1 0.5 0.69996 0.5
353 1 0.55 0.69996 0.5
334 1 0.575 0.64997 0.5
355 1 0.6 0.69996 0.5
336 1 0.625 0.64997 0.5
338 1 0.675 0.64997 0.5
357 1 0.65 0.69996 0.5
340 1 0.725 0.64997 0.5
359 1 0.7 0.69996 0.5
342 1 0.775 0.64997 0.5
361 1 0.75 0.69996 0.5
363 1 0.8 0.69996 0.5
344 1 0.825 0.64997 0.5
365 1 0.85 0.69996 0.5
346 1 0.875 0.64997 0.5
348 1 0.925 0.64997 0.5
367 1 0.9 0.69996 0.5
350 1 0.975 0.64997 0.5
369 1 0.95 0.69996 0.5
352 1 0.525 0.74995 0.5
354 1 0.575 0.74995 0.5
356 1 0.625 0.74995 0.5
358 1 0.675 0.74995 0.5
360 1 0.725 0.74995 0.5
362 1 0.775 0.74995 0.5
364 1 0.825 0.74995 0.5
366 1 0.875 0.74995 0.5
368 1 0.925 0.74995 0.5
370 1 0.975 0.74995 0.5
371 1 0.5 0.79994 0.5
372 1 0.525 0.84993 0.5
373 1 0.55 0.79994 0.5
374 1 0.575 0.84993 0.5
375 1 0.6 0.79994 0.5
376 1 0.625 0.84993 0.5
377 1 0.65 0.79994 0.5
378 1 0.675 0.84993 0.5
379 1 0.7 0.79994 0.5
380 1 0.725 0.84993 0.5
381 1 0.75 0.79994 0.5
382 1 0.775 0.84993 0.5
383 1 0.8 0.79994 0.5
384 1 0.825 0.84993 0.5
385 1 0.85 0.79994 0.5
386 1 0.875 0.84993 0.5
387 1 0.9 0.79994 0.5
388 1 0.925 0.84993 0.5
389 1 0.95 0.79994 0.5
390 1 0.975 0.84993 0.5
391 1 0.5 0.89992 0.5
393 1 0.55 0.89992 0.5
395 1 0.6 0.89992 0.5
397 1 0.65 0.89992 0.5
399 1 0.7 0.89992 0.5
401 1 0.75 0.89992 0.5
403 1 0.8 0.89992 0.5
405 1 0.85 0.89992 0.5
407 1 0.9 0.89992 0.5
409 1 0.95 0.89992 0.5
392 1 0.525 0.94991 0.5
411 1 0.5 0.9999 0.5
412 1 0.55 0.9999 0.5
394 1 0.575 0.94991 0.5
413 1 0.6 0.9999 0.5
396 1 0.625 0.94991 0.5
398 1 0.675 0.94991 0.5
414 1 0.65 0.9999 0.5
400 1 0.725 0.94991 0.5
415 1 0.7 0.9999 0.5
402 1 0.775 0.94991 0.5
416 1 0.75 0.9999 0.5
417 1 0.8 0.9999 0.5
404 1 0.825 0.94991 0.5
418 1 0.85 0.9999 0.5
406 1 0.875 0.94991 0.5
408 1 0.925 0.94991 0.5
419 1 0.9 0.9999 0.5
410 1 0.975 0.94991 0.5
420 1 0.95 0.9999 0.5
ITEM: TIMESTEP
250
ITEM: NUMBER OF ATOMS
420
ITEM: BOX BOUNDS pp ss pp
0.0000000000000000e+00 2.2653923264628304e+01
-1.9618873042551413e-03 1.9675538149388302e+01
-2.8317404080785380e-01 2.8317404080785380e-01
ITEM: ATOMS id type xs ys zs
1 2 0 9.97021e-05 0.5
2 2 0.025 0.0499507 0.5
3 2 0.05 9.97021e-05 0.5
4 2 0.075 0.0499507 0.5
5 2 0.1 9.97021e-05 0.5
6 2 0.125 0.0499507 0.5
7 2 0.15 9.97021e-05 0.5
8 2 0.175 0.0499507 0.5
9 2 0.2 9.97021e-05 0.5
10 2 0.225 0.0499507 0.5
11 2 0.25 9.97021e-05 0.5
12 2 0.275 0.0499507 0.5
13 2 0.3 9.97021e-05 0.5
14 2 0.325 0.0499507 0.5
15 2 0.35 9.97021e-05 0.5
16 2 0.375 0.0499507 0.5
17 2 0.4 9.97021e-05 0.5
18 2 0.425 0.0499507 0.5
19 2 0.45 9.97021e-05 0.5
20 2 0.475 0.0499507 0.5
21 2 0 0.0998018 0.5
23 2 0.05 0.0998018 0.5
25 2 0.1 0.0998018 0.5
27 2 0.15 0.0998018 0.5
29 2 0.2 0.0998018 0.5
31 2 0.25 0.0998018 0.5
33 2 0.3 0.0998018 0.5
35 2 0.35 0.0998018 0.5
37 2 0.4 0.0998018 0.5
39 2 0.45 0.0998018 0.5
22 1 0.025622 0.148657 0.5
100 1 0.473394 0.448062 0.5
43 1 0.0513249 0.196935 0.5
24 1 0.0757789 0.150793 0.5
45 1 0.101995 0.195222 0.5
26 1 0.125386 0.148379 0.5
28 1 0.176459 0.149816 0.5
47 1 0.151557 0.196905 0.5
30 1 0.22935 0.150474 0.5
49 1 0.199446 0.198894 0.5
32 1 0.276512 0.150646 0.5
51 1 0.248354 0.201685 0.5
53 1 0.303566 0.200289 0.5
34 1 0.325861 0.150228 0.5
55 1 0.35412 0.197066 0.5
36 1 0.376052 0.14769 0.5
38 1 0.424859 0.147113 0.5
57 1 0.401412 0.194966 0.5
40 1 0.477935 0.150789 0.5
59 1 0.450348 0.194569 0.5
42 1 0.0250322 0.247203 0.5
44 1 0.0735152 0.247034 0.5
46 1 0.123397 0.250334 0.5
48 1 0.174427 0.247413 0.5
50 1 0.224812 0.251209 0.5
52 1 0.279905 0.249131 0.5
54 1 0.329043 0.248059 0.5
56 1 0.378594 0.247115 0.5
58 1 0.427835 0.245721 0.5
60 1 0.475171 0.249955 0.5
98 1 0.422073 0.449109 0.5
62 1 0.0262221 0.345654 0.5
63 1 0.0496044 0.294451 0.5
64 1 0.0743443 0.347228 0.5
65 1 0.101706 0.299315 0.5
66 1 0.124476 0.349788 0.5
67 1 0.151382 0.299045 0.5
68 1 0.174519 0.349827 0.5
69 1 0.199275 0.299943 0.5
70 1 0.226833 0.348688 0.5
71 1 0.253191 0.295904 0.5
72 1 0.277078 0.350404 0.5
73 1 0.303688 0.298203 0.5
74 1 0.326276 0.350268 0.5
75 1 0.35099 0.296885 0.5
76 1 0.378462 0.345195 0.5
77 1 0.400483 0.295698 0.5
78 1 0.424368 0.351063 0.5
79 1 0.449411 0.298586 0.5
80 1 0.473494 0.3495 0.5
96 1 0.372992 0.450673 0.5
83 1 0.0512039 0.394368 0.5
85 1 0.106301 0.40035 0.5
87 1 0.153567 0.404728 0.5
89 1 0.202611 0.39847 0.5
91 1 0.252063 0.399631 0.5
93 1 0.301175 0.400639 0.5
95 1 0.347858 0.401407 0.5
97 1 0.398556 0.399594 0.5
99 1 0.448639 0.400797 0.5
82 1 0.0278037 0.444544 0.5
84 1 0.0777258 0.44689 0.5
86 1 0.127857 0.455105 0.5
88 1 0.177413 0.454678 0.5
90 1 0.224979 0.448774 0.5
92 1 0.276179 0.449536 0.5
94 1 0.324152 0.452137 0.5
81 1 0.000970897 0.396253 0.5
103 1 0.0514144 0.496863 0.5
101 1 0.00338397 0.495186 0.5
41 1 0.00117625 0.197804 0.5
111 1 0.247842 0.500179 0.5
271 1 0.499758 0.301303 0.5
115 1 0.349532 0.49999 0.5
117 1 0.399774 0.496101 0.5
119 1 0.450605 0.497538 0.5
291 1 0.498388 0.4008 0.5
61 1 0.000447665 0.298108 0.5
109 1 0.198438 0.5027 0.5
102 1 0.0248442 0.549336 0.5
204 1 0.149592 0.998914 0.5
104 1 0.0743897 0.547755 0.5
196 1 0.37479 0.941602 0.5
106 1 0.123867 0.553231 0.5
208 1 0.351732 0.990897 0.5
108 1 0.175833 0.553933 0.5
194 1 0.325025 0.941386 0.5
110 1 0.223661 0.554397 0.5
113 1 0.298382 0.498955 0.5
112 1 0.27109 0.549238 0.5
207 1 0.295549 0.997129 0.5
114 1 0.32537 0.550062 0.5
206 1 0.246692 0.987966 0.5
116 1 0.373853 0.54552 0.5
192 1 0.275885 0.947561 0.5
118 1 0.424633 0.546057 0.5
205 1 0.200253 0.997028 0.5
120 1 0.474684 0.546596 0.5
210 1 0.452892 0.995466 0.5
123 1 0.0482791 0.59883 0.5
125 1 0.0971399 0.597469 0.5
127 1 0.14985 0.600908 0.5
129 1 0.197718 0.605342 0.5
131 1 0.248787 0.602242 0.5
133 1 0.298489 0.59702 0.5
135 1 0.347631 0.599261 0.5
137 1 0.398375 0.597177 0.5
139 1 0.448551 0.597345 0.5
122 1 0.025262 0.649311 0.5
200 1 0.478746 0.942659 0.5
143 1 0.0479504 0.69868 0.5
124 1 0.0743966 0.648256 0.5
145 1 0.0978539 0.69811 0.5
126 1 0.123136 0.648709 0.5
128 1 0.17249 0.652968 0.5
147 1 0.146327 0.703575 0.5
130 1 0.222519 0.654074 0.5
149 1 0.195527 0.699133 0.5
132 1 0.274639 0.65117 0.5
151 1 0.250859 0.700005 0.5
153 1 0.301141 0.700659 0.5
134 1 0.323626 0.645859 0.5
155 1 0.352576 0.701257 0.5
136 1 0.377699 0.648719 0.5
138 1 0.425331 0.646503 0.5
157 1 0.400082 0.698458 0.5
140 1 0.473554 0.64296 0.5
159 1 0.452031 0.695622 0.5
142 1 0.0251882 0.746262 0.5
144 1 0.0732408 0.746979 0.5
146 1 0.12182 0.749673 0.5
148 1 0.173543 0.752396 0.5
150 1 0.223092 0.747784 0.5
152 1 0.27428 0.752427 0.5
154 1 0.326551 0.750599 0.5
156 1 0.376915 0.747665 0.5
158 1 0.428965 0.744699 0.5
160 1 0.480683 0.74361 0.5
190 1 0.219894 0.944462 0.5
162 1 0.0223332 0.847809 0.5
163 1 0.0480858 0.796499 0.5
164 1 0.0717576 0.845989 0.5
165 1 0.0969966 0.796264 0.5
166 1 0.119609 0.849555 0.5
167 1 0.146829 0.801516 0.5
168 1 0.172112 0.851383 0.5
169 1 0.195544 0.802044 0.5
170 1 0.219233 0.852323 0.5
171 1 0.246011 0.799435 0.5
172 1 0.270827 0.848085 0.5
173 1 0.298006 0.799049 0.5
174 1 0.321663 0.846353 0.5
175 1 0.351612 0.800021 0.5
176 1 0.379582 0.850626 0.5
177 1 0.405832 0.795442 0.5
178 1 0.429818 0.845253 0.5
179 1 0.456596 0.794644 0.5
180 1 0.47698 0.844612 0.5
209 1 0.400164 0.990858 0.5
183 1 0.045733 0.897736 0.5
185 1 0.0929021 0.897102 0.5
187 1 0.144435 0.89776 0.5
189 1 0.193748 0.90048 0.5
191 1 0.248704 0.900889 0.5
193 1 0.298351 0.895527 0.5
195 1 0.350866 0.89297 0.5
197 1 0.402785 0.898129 0.5
199 1 0.451776 0.894596 0.5
182 1 0.019785 0.94705 0.5
198 1 0.427288 0.947295 0.5
202 1 0.043304 0.999793 0.5
184 1 0.0674906 0.945779 0.5
203 1 0.0949069 0.994627 0.5
186 1 0.11865 0.946888 0.5
188 1 0.16827 0.948867 0.5
331 1 0.496805 0.595467 0.5
107 1 0.150273 0.504368 0.5
105 1 0.0995035 0.501114 0.5
211 2 0.5 9.97021e-05 0.5
212 2 0.525 0.0499507 0.5
213 2 0.55 9.97021e-05 0.5
214 2 0.575 0.0499507 0.5
215 2 0.6 9.97021e-05 0.5
216 2 0.625 0.0499507 0.5
217 2 0.65 9.97021e-05 0.5
218 2 0.675 0.0499507 0.5
219 2 0.7 9.97021e-05 0.5
220 2 0.725 0.0499507 0.5
221 2 0.75 9.97021e-05 0.5
222 2 0.775 0.0499507 0.5
223 2 0.8 9.97021e-05 0.5
224 2 0.825 0.0499507 0.5
225 2 0.85 9.97021e-05 0.5
226 2 0.875 0.0499507 0.5
227 2 0.9 9.97021e-05 0.5
228 2 0.925 0.0499507 0.5
229 2 0.95 9.97021e-05 0.5
230 2 0.975 0.0499507 0.5
231 2 0.5 0.0998018 0.5
233 2 0.55 0.0998018 0.5
235 2 0.6 0.0998018 0.5
237 2 0.65 0.0998018 0.5
239 2 0.7 0.0998018 0.5
241 2 0.75 0.0998018 0.5
243 2 0.8 0.0998018 0.5
245 2 0.85 0.0998018 0.5
247 2 0.9 0.0998018 0.5
249 2 0.95 0.0998018 0.5
232 1 0.528356 0.148408 0.5
251 1 0.503451 0.199623 0.5
253 1 0.552606 0.200539 0.5
234 1 0.575948 0.148067 0.5
255 1 0.603113 0.199499 0.5
236 1 0.626374 0.150331 0.5
238 1 0.675537 0.146849 0.5
257 1 0.651506 0.199017 0.5
240 1 0.723965 0.147429 0.5
259 1 0.698642 0.198286 0.5
242 1 0.773509 0.15078 0.5
261 1 0.747573 0.201976 0.5
263 1 0.79718 0.200752 0.5
244 1 0.822877 0.14845 0.5
265 1 0.847281 0.200389 0.5
246 1 0.871452 0.150625 0.5
248 1 0.924492 0.151631 0.5
267 1 0.896446 0.199931 0.5
250 1 0.975882 0.151231 0.5
269 1 0.951526 0.199177 0.5
252 1 0.525103 0.251019 0.5
254 1 0.574954 0.25296 0.5
256 1 0.622813 0.248583 0.5
258 1 0.676831 0.249837 0.5
260 1 0.723138 0.248747 0.5
262 1 0.772209 0.250193 0.5
264 1 0.82015 0.251001 0.5
266 1 0.873221 0.24796 0.5
268 1 0.924668 0.248186 0.5
270 1 0.977593 0.248035 0.5
313 1 0.549577 0.49743 0.5
272 1 0.525175 0.35198 0.5
273 1 0.548842 0.300914 0.5
274 1 0.574685 0.3497 0.5
275 1 0.601035 0.300436 0.5
276 1 0.626194 0.352266 0.5
277 1 0.652583 0.300008 0.5
278 1 0.675719 0.350906 0.5
279 1 0.700688 0.300879 0.5
280 1 0.727158 0.350244 0.5
281 1 0.750054 0.299132 0.5
282 1 0.77588 0.352115 0.5
283 1 0.797724 0.301364 0.5
284 1 0.825749 0.346585 0.5
285 1 0.848878 0.298348 0.5
286 1 0.87317 0.345294 0.5
287 1 0.904793 0.299528 0.5
288 1 0.927005 0.348288 0.5
289 1 0.952447 0.294081 0.5
290 1 0.976134 0.348164 0.5
329 1 0.949544 0.495023 0.5
293 1 0.550509 0.399276 0.5
295 1 0.602071 0.402858 0.5
297 1 0.653818 0.402733 0.5
299 1 0.704632 0.398855 0.5
301 1 0.752505 0.405103 0.5
303 1 0.800109 0.401621 0.5
305 1 0.848404 0.39761 0.5
307 1 0.900036 0.395192 0.5
309 1 0.951423 0.396338 0.5
292 1 0.526567 0.446069 0.5
294 1 0.574647 0.449545 0.5
296 1 0.625202 0.451361 0.5
298 1 0.676951 0.45164 0.5
300 1 0.72763 0.453167 0.5
302 1 0.779124 0.453004 0.5
304 1 0.826657 0.450228 0.5
306 1 0.874412 0.444634 0.5
308 1 0.922957 0.44641 0.5
310 1 0.97785 0.448138 0.5
325 1 0.850819 0.499091 0.5
327 1 0.899795 0.494639 0.5
311 1 0.500461 0.497058 0.5
317 1 0.650378 0.498022 0.5
319 1 0.701092 0.498891 0.5
315 1 0.600475 0.49794 0.5
201 1 0.994309 0.998599 0.5
312 1 0.522795 0.545341 0.5
181 1 0.997073 0.89614 0.5
314 1 0.572302 0.546255 0.5
141 1 0.998692 0.697681 0.5
316 1 0.623454 0.55242 0.5
351 1 0.500046 0.693937 0.5
318 1 0.674633 0.547712 0.5
161 1 0.999828 0.799771 0.5
320 1 0.725356 0.548268 0.5
411 1 0.505161 0.989991 0.5
322 1 0.775981 0.552154 0.5
419 1 0.895284 0.999097 0.5
324 1 0.825621 0.552251 0.5
408 1 0.923373 0.945629 0.5
326 1 0.877773 0.548455 0.5
418 1 0.847524 0.992051 0.5
328 1 0.926021 0.544573 0.5
406 1 0.872426 0.944498 0.5
330 1 0.974392 0.545964 0.5
404 1 0.823026 0.945245 0.5
333 1 0.547994 0.595597 0.5
335 1 0.599601 0.599336 0.5
337 1 0.650609 0.60005 0.5
339 1 0.699692 0.593978 0.5
341 1 0.749463 0.595956 0.5
343 1 0.800236 0.597615 0.5
345 1 0.852365 0.599533 0.5
347 1 0.902643 0.597566 0.5
349 1 0.951681 0.595699 0.5
332 1 0.523073 0.644559 0.5
420 1 0.944734 0.999617 0.5
353 1 0.55072 0.693907 0.5
334 1 0.573812 0.646939 0.5
355 1 0.600043 0.693695 0.5
336 1 0.622811 0.645075 0.5
338 1 0.676837 0.647376 0.5
357 1 0.650599 0.694189 0.5
340 1 0.727048 0.645817 0.5
359 1 0.703596 0.696235 0.5
342 1 0.776908 0.648509 0.5
361 1 0.753464 0.696883 0.5
363 1 0.80322 0.69869 0.5
344 1 0.825005 0.646459 0.5
365 1 0.849194 0.69658 0.5
346 1 0.87513 0.648904 0.5
348 1 0.925865 0.646976 0.5
367 1 0.899388 0.696137 0.5
350 1 0.97431 0.646989 0.5
369 1 0.948578 0.696353 0.5
352 1 0.528094 0.745468 0.5
354 1 0.576518 0.745481 0.5
356 1 0.624707 0.743388 0.5
358 1 0.67533 0.744971 0.5
360 1 0.728603 0.747679 0.5
362 1 0.777441 0.745349 0.5
364 1 0.825329 0.749704 0.5
366 1 0.872701 0.748244 0.5
368 1 0.922138 0.747092 0.5
370 1 0.970237 0.747764 0.5
417 1 0.798127 0.998471 0.5
372 1 0.526816 0.844703 0.5
373 1 0.551368 0.795803 0.5
374 1 0.575285 0.844656 0.5
375 1 0.600135 0.796388 0.5
376 1 0.62431 0.844571 0.5
377 1 0.650153 0.793188 0.5
378 1 0.674697 0.841968 0.5
379 1 0.701679 0.791187 0.5
380 1 0.724807 0.843983 0.5
381 1 0.754512 0.794535 0.5
382 1 0.777094 0.847116 0.5
383 1 0.799113 0.796537 0.5
384 1 0.826149 0.846851 0.5
385 1 0.853529 0.799041 0.5
386 1 0.874974 0.848693 0.5
387 1 0.899817 0.797179 0.5
388 1 0.923888 0.846122 0.5
389 1 0.948289 0.797263 0.5
390 1 0.973166 0.846935 0.5
391 1 0.501664 0.897063 0.5
393 1 0.550816 0.89324 0.5
395 1 0.6034 0.892751 0.5
397 1 0.651813 0.89185 0.5
399 1 0.698353 0.893239 0.5
401 1 0.750519 0.893623 0.5
403 1 0.800241 0.896891 0.5
405 1 0.851159 0.895232 0.5
407 1 0.898848 0.896139 0.5
409 1 0.946511 0.898013 0.5
392 1 0.52862 0.942447 0.5
410 1 0.97078 0.94847 0.5
412 1 0.554291 0.99078 0.5
394 1 0.578243 0.942134 0.5
413 1 0.603454 0.991281 0.5
396 1 0.62602 0.941483 0.5
398 1 0.673708 0.943163 0.5
414 1 0.650891 0.995747 0.5
400 1 0.726553 0.943397 0.5
415 1 0.702428 0.991287 0.5
402 1 0.775721 0.941494 0.5
416 1 0.752522 0.988584 0.5
371 1 0.504165 0.796241 0.5
121 1 0.999586 0.601017 0.5
323 1 0.80101 0.504169 0.5
321 1 0.750875 0.500612 0.5
ITEM: TIMESTEP
500
ITEM: NUMBER OF ATOMS
420
ITEM: BOX BOUNDS pp ss pp
0.0000000000000000e+00 2.2653923264628304e+01
-1.9618873042551413e-03 1.9711986989749299e+01
-2.8317404080785380e-01 2.8317404080785380e-01
ITEM: ATOMS id type xs ys zs
1 2 0 9.95177e-05 0.5
2 2 0.025 0.0498584 0.5
3 2 0.05 9.95177e-05 0.5
4 2 0.075 0.0498584 0.5
5 2 0.1 9.95177e-05 0.5
6 2 0.125 0.0498584 0.5
7 2 0.15 9.95177e-05 0.5
8 2 0.175 0.0498584 0.5
9 2 0.2 9.95177e-05 0.5
10 2 0.225 0.0498584 0.5
11 2 0.25 9.95177e-05 0.5
12 2 0.275 0.0498584 0.5
13 2 0.3 9.95177e-05 0.5
14 2 0.325 0.0498584 0.5
15 2 0.35 9.95177e-05 0.5
16 2 0.375 0.0498584 0.5
17 2 0.4 9.95177e-05 0.5
18 2 0.425 0.0498584 0.5
19 2 0.45 9.95177e-05 0.5
20 2 0.475 0.0498584 0.5
21 2 0 0.0996172 0.5
23 2 0.05 0.0996172 0.5
25 2 0.1 0.0996172 0.5
27 2 0.15 0.0996172 0.5
29 2 0.2 0.0996172 0.5
31 2 0.25 0.0996172 0.5
33 2 0.3 0.0996172 0.5
35 2 0.35 0.0996172 0.5
37 2 0.4 0.0996172 0.5
39 2 0.45 0.0996172 0.5
22 1 0.0249189 0.151095 0.5
100 1 0.473192 0.449379 0.5
43 1 0.0518414 0.2026 0.5
24 1 0.0745553 0.1507 0.5
45 1 0.0991282 0.198866 0.5
26 1 0.124323 0.14923 0.5
28 1 0.173268 0.147786 0.5
47 1 0.148946 0.195935 0.5
30 1 0.22639 0.148348 0.5
49 1 0.197283 0.195118 0.5
32 1 0.274639 0.150483 0.5
51 1 0.247503 0.199522 0.5
53 1 0.300417 0.199137 0.5
34 1 0.324885 0.151086 0.5
55 1 0.346747 0.201624 0.5
36 1 0.374342 0.15123 0.5
38 1 0.421333 0.148495 0.5
57 1 0.396934 0.201789 0.5
40 1 0.472424 0.147773 0.5
59 1 0.447119 0.20121 0.5
42 1 0.024257 0.250543 0.5
44 1 0.0752139 0.250485 0.5
46 1 0.125971 0.251759 0.5
48 1 0.17536 0.250559 0.5
50 1 0.223388 0.247843 0.5
52 1 0.273779 0.248052 0.5
54 1 0.323854 0.251718 0.5
56 1 0.37227 0.255489 0.5
58 1 0.422965 0.251347 0.5
60 1 0.471261 0.249003 0.5
98 1 0.425804 0.446496 0.5
62 1 0.0246334 0.347896 0.5
63 1 0.0501885 0.298796 0.5
64 1 0.0746929 0.348094 0.5
65 1 0.09801 0.299667 0.5
66 1 0.12274 0.349283 0.5
67 1 0.149947 0.299046 0.5
68 1 0.174241 0.346031 0.5
69 1 0.200738 0.29956 0.5
70 1 0.223837 0.347899 0.5
71 1 0.250332 0.296271 0.5
72 1 0.273913 0.35097 0.5
73 1 0.298133 0.300165 0.5
74 1 0.320821 0.350522 0.5
75 1 0.344503 0.300605 0.5
76 1 0.371937 0.347737 0.5
77 1 0.400552 0.302844 0.5
78 1 0.427143 0.349636 0.5
79 1 0.451851 0.300584 0.5
80 1 0.477445 0.349118 0.5
96 1 0.377032 0.446228 0.5
83 1 0.0513794 0.395665 0.5
85 1 0.100079 0.398341 0.5
87 1 0.149027 0.401698 0.5
89 1 0.200282 0.400713 0.5
91 1 0.250157 0.396934 0.5
93 1 0.298673 0.399872 0.5
95 1 0.349636 0.396436 0.5
97 1 0.399886 0.395808 0.5
99 1 0.451148 0.400504 0.5
82 1 0.0264153 0.449118 0.5
84 1 0.074258 0.447454 0.5
86 1 0.122472 0.45026 0.5
88 1 0.173536 0.447687 0.5
90 1 0.225623 0.446441 0.5
92 1 0.276479 0.449111 0.5
94 1 0.326345 0.445072 0.5
81 1 0.00302693 0.400862 0.5
103 1 0.0509784 0.496279 0.5
107 1 0.151465 0.497462 0.5
105 1 0.0982259 0.497976 0.5
109 1 0.200053 0.493846 0.5
113 1 0.302832 0.496495 0.5
115 1 0.352105 0.498587 0.5
117 1 0.403605 0.498773 0.5
41 1 0.00220895 0.198731 0.5
61 1 -8.57827e-05 0.30106 0.5
111 1 0.246602 0.495449 0.5
251 1 0.497754 0.19622 0.5
371 1 0.497997 0.791585 0.5
102 1 0.0261508 0.548257 0.5
204 1 0.149687 0.99279 0.5
104 1 0.0744957 0.547806 0.5
196 1 0.376568 0.943073 0.5
106 1 0.123085 0.546679 0.5
208 1 0.349757 0.992611 0.5
108 1 0.175788 0.54373 0.5
194 1 0.326675 0.94427 0.5
110 1 0.225286 0.546075 0.5
121 1 0.00140326 0.598979 0.5
112 1 0.27393 0.542092 0.5
207 1 0.303496 0.993871 0.5
114 1 0.325563 0.548456 0.5
206 1 0.250577 0.992345 0.5
116 1 0.373878 0.54824 0.5
192 1 0.276503 0.946671 0.5
118 1 0.424349 0.549981 0.5
205 1 0.198203 0.994175 0.5
120 1 0.475778 0.551122 0.5
210 1 0.451765 0.98652 0.5
123 1 0.0514981 0.597311 0.5
125 1 0.101354 0.593454 0.5
127 1 0.149688 0.593695 0.5
129 1 0.198331 0.595326 0.5
131 1 0.251044 0.592651 0.5
133 1 0.299289 0.594353 0.5
135 1 0.34825 0.597104 0.5
137 1 0.397813 0.596884 0.5
139 1 0.447497 0.597675 0.5
122 1 0.0273735 0.648714 0.5
200 1 0.47776 0.940578 0.5
143 1 0.0486819 0.697292 0.5
124 1 0.0764099 0.642433 0.5
145 1 0.0969426 0.693775 0.5
126 1 0.123418 0.643338 0.5
128 1 0.172072 0.64514 0.5
147 1 0.148046 0.693793 0.5
130 1 0.223099 0.643277 0.5
149 1 0.198679 0.695443 0.5
132 1 0.272382 0.643824 0.5
151 1 0.247792 0.690128 0.5
153 1 0.298 0.69517 0.5
134 1 0.321514 0.643361 0.5
155 1 0.348797 0.695546 0.5
136 1 0.373484 0.646407 0.5
138 1 0.42454 0.645779 0.5
157 1 0.396345 0.696843 0.5
140 1 0.473131 0.644675 0.5
159 1 0.447638 0.694608 0.5
142 1 0.0237611 0.74595 0.5
144 1 0.0741162 0.744754 0.5
146 1 0.123236 0.747922 0.5
148 1 0.17557 0.743047 0.5
150 1 0.223581 0.746101 0.5
152 1 0.27164 0.745024 0.5
154 1 0.323255 0.746322 0.5
156 1 0.370322 0.744005 0.5
158 1 0.421513 0.745435 0.5
160 1 0.473366 0.745138 0.5
190 1 0.225348 0.943077 0.5
162 1 0.0248255 0.843691 0.5
163 1 0.0496756 0.793894 0.5
164 1 0.0759097 0.845262 0.5
165 1 0.0994283 0.794556 0.5
166 1 0.12427 0.846067 0.5
167 1 0.151555 0.796551 0.5
168 1 0.175759 0.846443 0.5
169 1 0.199118 0.79626 0.5
170 1 0.226781 0.847474 0.5
171 1 0.246864 0.796106 0.5
172 1 0.27309 0.844589 0.5
173 1 0.295526 0.794663 0.5
174 1 0.322919 0.845559 0.5
175 1 0.347057 0.797598 0.5
176 1 0.373072 0.844823 0.5
177 1 0.397892 0.790589 0.5
178 1 0.421395 0.844199 0.5
179 1 0.447774 0.794729 0.5
180 1 0.470901 0.843417 0.5
209 1 0.401653 0.989766 0.5
183 1 0.0518502 0.894381 0.5
185 1 0.101069 0.896892 0.5
187 1 0.150038 0.893932 0.5
189 1 0.200293 0.896884 0.5
191 1 0.250295 0.895824 0.5
193 1 0.300181 0.89767 0.5
195 1 0.347395 0.893186 0.5
197 1 0.399823 0.892198 0.5
199 1 0.450446 0.891702 0.5
182 1 0.0243673 0.940827 0.5
198 1 0.426114 0.939635 0.5
202 1 0.046896 0.991302 0.5
184 1 0.0737671 0.944073 0.5
203 1 0.0978662 0.999079 0.5
186 1 0.125676 0.94343 0.5
188 1 0.174287 0.944249 0.5
351 1 0.498621 0.695523 0.5
411 1 0.498634 0.993372 0.5
141 1 0.00156684 0.695317 0.5
119 1 0.453337 0.50244 0.5
101 1 0.00265934 0.499557 0.5
211 2 0.5 9.95177e-05 0.5
212 2 0.525 0.0498584 0.5
213 2 0.55 9.95177e-05 0.5
214 2 0.575 0.0498584 0.5
215 2 0.6 9.95177e-05 0.5
216 2 0.625 0.0498584 0.5
217 2 0.65 9.95177e-05 0.5
218 2 0.675 0.0498584 0.5
219 2 0.7 9.95177e-05 0.5
220 2 0.725 0.0498584 0.5
221 2 0.75 9.95177e-05 0.5
222 2 0.775 0.0498584 0.5
223 2 0.8 9.95177e-05 0.5
224 2 0.825 0.0498584 0.5
225 2 0.85 9.95177e-05 0.5
226 2 0.875 0.0498584 0.5
227 2 0.9 9.95177e-05 0.5
228 2 0.925 0.0498584 0.5
229 2 0.95 9.95177e-05 0.5
230 2 0.975 0.0498584 0.5
231 2 0.5 0.0996172 0.5
233 2 0.55 0.0996172 0.5
235 2 0.6 0.0996172 0.5
237 2 0.65 0.0996172 0.5
239 2 0.7 0.0996172 0.5
241 2 0.75 0.0996172 0.5
243 2 0.8 0.0996172 0.5
245 2 0.85 0.0996172 0.5
247 2 0.9 0.0996172 0.5
249 2 0.95 0.0996172 0.5
232 1 0.526487 0.150026 0.5
271 1 0.500307 0.296675 0.5
253 1 0.549551 0.197051 0.5
234 1 0.57798 0.147845 0.5
255 1 0.601728 0.199664 0.5
236 1 0.626941 0.148519 0.5
238 1 0.675647 0.146474 0.5
257 1 0.65361 0.19561 0.5
240 1 0.728154 0.148815 0.5
259 1 0.703781 0.196956 0.5
242 1 0.776184 0.150892 0.5
261 1 0.754677 0.198951 0.5
263 1 0.802224 0.198938 0.5
244 1 0.824812 0.149256 0.5
265 1 0.851282 0.198241 0.5
246 1 0.876368 0.148605 0.5
248 1 0.928734 0.148347 0.5
267 1 0.899991 0.19896 0.5
250 1 0.976791 0.149611 0.5
269 1 0.953786 0.200748 0.5
252 1 0.52428 0.247115 0.5
254 1 0.574629 0.247488 0.5
256 1 0.625977 0.245918 0.5
258 1 0.6754 0.245085 0.5
260 1 0.727538 0.244193 0.5
262 1 0.779831 0.247556 0.5
264 1 0.828217 0.248566 0.5
266 1 0.876211 0.245275 0.5
268 1 0.924953 0.24873 0.5
270 1 0.974675 0.25041 0.5
313 1 0.55093 0.499503 0.5
272 1 0.526544 0.347197 0.5
273 1 0.550731 0.299387 0.5
274 1 0.576951 0.346018 0.5
275 1 0.600333 0.293867 0.5
276 1 0.624848 0.344268 0.5
277 1 0.650209 0.298186 0.5
278 1 0.674299 0.348827 0.5
279 1 0.701885 0.293906 0.5
280 1 0.728142 0.347665 0.5
281 1 0.754312 0.295927 0.5
282 1 0.77588 0.347288 0.5
283 1 0.805232 0.295634 0.5
284 1 0.827653 0.34591 0.5
285 1 0.853236 0.29851 0.5
286 1 0.879923 0.345594 0.5
287 1 0.903995 0.299281 0.5
288 1 0.927717 0.350226 0.5
289 1 0.951528 0.300946 0.5
290 1 0.977141 0.353335 0.5
329 1 0.951233 0.497011 0.5
293 1 0.550702 0.396302 0.5
295 1 0.598978 0.396063 0.5
297 1 0.646762 0.396402 0.5
299 1 0.699906 0.394168 0.5
301 1 0.750554 0.397517 0.5
303 1 0.80049 0.39787 0.5
305 1 0.850042 0.395948 0.5
307 1 0.899623 0.396187 0.5
309 1 0.952074 0.401343 0.5
292 1 0.522406 0.445204 0.5
294 1 0.571595 0.446398 0.5
296 1 0.622337 0.448662 0.5