LAMMPS (29 Sep 2021 - Update 2)
# 2d indenter simulation

dimension	2
boundary	p s p

atom_style	atomic
neighbor	0.3 bin
neigh_modify	delay 5

# create geometry

lattice		hex 0.9
Lattice spacing in x,y,z = 1.1326962 1.9618873 1.1326962
region		box block 0 20 0 10 -0.25 0.25
create_box	2 box
Created orthogonal box = (0.0000000 0.0000000 -0.28317404) to (22.653923 19.618873 0.28317404)
  2 by 2 by 1 MPI processor grid
create_atoms	1 box
Created 420 atoms
  using lattice units in orthogonal box = (0.0000000 -0.0019618873 -0.28317404) to (22.653923 19.620835 0.28317404)
  create_atoms CPU = 0.002 seconds

mass		1 1.0
mass		2 1.0

# LJ potentials

pair_style	lj/cut 2.5
pair_coeff	* * 1.0 1.0 2.5

# define groups

region	        1 block INF INF INF 1.25 INF INF
group		lower region 1
60 atoms in group lower
group		mobile subtract all lower
360 atoms in group mobile
set		group lower type 2
Setting atom values ...
  60 settings made for type

# initial velocities

compute	  	new mobile temp
velocity	mobile create 0.3 482748 temp new
fix		1 all nve
fix		2 lower setforce 0.0 0.0 0.0
fix		3 all temp/rescale 100 0.1 0.1 0.01 1.0

# run with indenter

timestep	0.003
variable	k equal 1000.0/xlat
variable        y equal "13.0*ylat - step*dt*0.02*ylat"

fix		4 all indent $k sphere 10 v_y 0 5.0
fix		4 all indent 882.849286914813 sphere 10 v_y 0 5.0
fix		5 all enforce2d

thermo		1000
thermo_modify	temp new
WARNING: Temperature for thermo pressure is not for group all (../thermo.cpp:482)

dump		1 all atom 250 dump.indent

#dump		2 all image 1000 image.*.jpg type type #		zoom 1.6 adiam 1.5
#dump_modify	2 pad 5

#dump		3 all movie 1000 movie.mpg type type #		zoom 1.6 adiam 1.5
#dump_modify	3 pad 5

run		30000
Neighbor list info ...
  update every 1 steps, delay 5 steps, check yes
  max neighbors/atom: 2000, page size: 100000
  master list distance cutoff = 2.8
  ghost atom cutoff = 2.8
  binsize = 1.4, bins = 17 15 1
  1 neighbor lists, perpetual/occasional/extra = 1 0 0
  (1) pair lj/cut, perpetual
      attributes: half, newton on
      pair build: half/bin/atomonly/newton
      stencil: half/bin/2d
      bin: standard
Per MPI rank memory allocation (min/avg/max) = 4.052 | 4.052 | 4.052 Mbytes
Step Temp E_pair E_mol TotEng Press Volume 
       0          0.3   -3.1727576            0    -2.916329   -1.3554261    444.53333 
    1000   0.12034192     -3.09141            0   -2.9885463  -0.28654869    442.21167 
    2000   0.11268321    -3.084857            0   -2.9885396  -0.24317107    442.75015 
    3000   0.11411834   -3.0858657            0   -2.9883217  -0.52178704    446.78651 
    4000   0.11969136   -3.0905348            0   -2.9882272  0.022642988    440.79018 
    5000   0.10700567    -3.089742            0   -2.9982776    -0.439744    446.44749 
    6000   0.12541825   -3.0908979            0   -2.9836952  -0.17579921    442.27986 
    7000   0.11533404   -3.0906973            0   -2.9921142 -0.059961364    441.19156 
    8000   0.11836461   -3.0882122            0   -2.9870386  0.065271185    443.22207 
    9000   0.12426873   -3.0880046            0   -2.9817845   0.39178714    438.95188 
   10000   0.11028276   -3.0724872            0   -2.9782217   0.29559796    442.92162 
   11000   0.12316469    -3.073918            0   -2.9686416   0.73327412     439.1001 
   12000   0.11219608   -3.0579852            0   -2.9620843   0.57292083    445.08634 
   13000   0.12558541   -3.0562958            0   -2.9489502    1.1072244    436.28121 
   14000   0.11822141   -3.0540768            0   -2.9530256   0.59143824    451.47424 
   15000   0.12469707   -3.0511969            0   -2.9446106   0.68080521    456.17951 
   16000   0.11296457   -3.0325702            0   -2.9360124   0.68412012    456.34159 
   17000   0.11536973    -3.034543            0   -2.9359293     1.138297    454.12527 
   18000   0.11860682   -3.0224618            0   -2.9210812    1.2521074    451.17468 
   19000   0.12637678   -3.0129458            0   -2.9049237    1.4860655    451.93462 
   20000    0.1133756   -2.9988517            0   -2.9019426    1.3915351    465.17191 
   21000   0.12203106   -3.0186314            0   -2.9143239   0.91787784    474.65011 
   22000   0.12045752   -3.0245539            0   -2.9215914   0.64735391    470.04224 
   23000   0.11663264   -3.0266689            0   -2.9269758   0.99869611    471.60514 
   24000   0.11476268   -3.0248382            0   -2.9267435    1.3109463    466.56087 
   25000   0.11671309    -3.029788            0   -2.9300261    1.0170462    467.48429 
   26000    0.1268192   -3.0256323            0   -2.9172321    1.0085118    470.88092 
   27000   0.12238785   -3.0061464            0   -2.9015339    1.0571887    471.86105 
   28000   0.11671309   -3.0128683            0   -2.9131064    1.2279461     473.8553 
   29000    0.1163124    -2.998227            0   -2.8988076    1.3929425    474.98169 
   30000    0.1152307   -2.9777511            0   -2.8792563    1.9105256    468.44247 
Loop time of 0.849905 on 4 procs for 30000 steps with 420 atoms

Performance: 9149259.605 tau/day, 35298.069 timesteps/s
99.5% CPU use with 4 MPI tasks x no OpenMP threads

MPI task timing breakdown:
Section |  min time  |  avg time  |  max time  |%varavg| %total
---------------------------------------------------------------
Pair    | 0.3581     | 0.40845    | 0.45363    |   6.7 | 48.06
Neigh   | 0.015444   | 0.017191   | 0.018759   |   1.1 |  2.02
Comm    | 0.12255    | 0.17403    | 0.23197    |  12.1 | 20.48
Output  | 0.012632   | 0.013518   | 0.014549   |   0.7 |  1.59
Modify  | 0.18251    | 0.1876     | 0.19211    |   0.9 | 22.07
Other   |            | 0.04911    |            |       |  5.78

Nlocal:        105.000 ave         113 max          94 min
Histogram: 1 0 0 1 0 0 0 0 0 2
Nghost:        96.5000 ave         102 max          92 min
Histogram: 1 1 0 0 0 0 0 1 0 1
Neighs:        926.500 ave        1063 max         766 min
Histogram: 1 0 1 0 0 0 0 0 0 2

Total # of neighbors = 3706
Ave neighs/atom = 8.8238095
Neighbor list builds = 614
Dangerous builds = 0

# run without indenter

unfix           4
run		30000
Per MPI rank memory allocation (min/avg/max) = 4.053 | 4.053 | 4.053 Mbytes
Step Temp E_pair E_mol TotEng Press Volume 
   30000    0.1152307   -2.9777511            0   -2.8792563    1.9063303    469.47338 
   31000   0.11981541   -3.0550642            0   -2.9526506  -0.65374005    481.61974 
   32000   0.12600268   -3.0343409            0   -2.9266387  -0.61135069    483.70243 
   33000   0.11671309    -3.047291            0   -2.9475291   0.29984342    473.31025 
   34000   0.11835771   -3.0461645            0   -2.9449968  -0.39107109     479.0596 
   35000   0.12506747   -3.0399998            0   -2.9330969  -0.22792326     476.2766 
   36000   0.11820592   -3.0449732            0   -2.9439352 -0.0046141737    478.55877 
   37000    0.1176555   -3.0444676            0   -2.9439002  -0.28286231    480.62127 
   38000   0.12434856   -3.0503049            0   -2.9440165  -0.24000719    477.57903 
   39000   0.11447791   -3.0418297            0   -2.9439784  -0.20651185    476.76344 
   40000   0.11542334   -3.0424797            0   -2.9438202  -0.18490717    478.15847 
   41000   0.11976139    -3.046305            0   -2.9439376  -0.31628721      476.657 
   42000   0.11658363   -3.0433574            0   -2.9437062  -0.16040821    479.85809 
   43000   0.11874464   -3.0452829            0   -2.9437845  -0.10693291    474.22409 
   44000   0.12480365   -3.0505023            0   -2.9438249  -0.21502765    476.58704 
   45000   0.12154696   -3.0477546            0   -2.9438609  -0.34525947    475.69926 
   46000   0.12511294   -3.0834967            0    -2.976555  -0.45163864     464.3089 
   47000   0.12027074   -3.0793593            0   -2.9765564  -0.17587028     465.0795 
   48000   0.11254923   -3.0727572            0   -2.9765544  -0.65177923    469.76869 
   49000   0.11157878   -3.0719272            0   -2.9765539  -0.14966794    464.63847 
   50000    0.1261786    -3.084408            0   -2.9765554   -0.3457784     464.6259 
   51000   0.11923507   -3.0784701            0   -2.9765525  -0.58427464    468.65185 
   52000    0.1210132   -3.0799934            0   -2.9765559 -0.073730281    463.07239 
   53000   0.11327042   -3.0858043            0    -2.988985  -0.43764517     466.1111 
   54000    0.1192203   -3.0778257            0   -2.9759208  -0.33589959    466.26484 
   55000   0.12323043   -3.0812583            0   -2.9759256  -0.14228873    462.36316 
   56000   0.11939727   -3.0779792            0    -2.975923  -0.52083441    469.87001 
   57000   0.11993671   -3.0784399            0   -2.9759226  -0.30258417    464.12548 
   58000   0.11671309   -3.0858986            0   -2.9861367  -0.24921261    463.69156 
   59000   0.11853856   -3.0767671            0   -2.9754448  -0.50652511    467.42492 
   60000   0.11865088   -3.0768612            0   -2.9754429  -0.15612788    463.29312 
Loop time of 0.697649 on 4 procs for 30000 steps with 420 atoms

Performance: 11146013.092 tau/day, 43001.594 timesteps/s
99.6% CPU use with 4 MPI tasks x no OpenMP threads

MPI task timing breakdown:
Section |  min time  |  avg time  |  max time  |%varavg| %total
---------------------------------------------------------------
Pair    | 0.34585    | 0.40447    | 0.45048    |   7.1 | 57.98
Neigh   | 0.014445   | 0.016999   | 0.019156   |   1.5 |  2.44
Comm    | 0.11581    | 0.16988    | 0.23826    |  12.9 | 24.35
Output  | 0.012472   | 0.013301   | 0.0143     |   0.7 |  1.91
Modify  | 0.046855   | 0.051573   | 0.055838   |   1.8 |  7.39
Other   |            | 0.04143    |            |       |  5.94

Nlocal:        105.000 ave         110 max          99 min
Histogram: 1 1 0 0 0 0 0 0 0 2
Nghost:        95.7500 ave         101 max          92 min
Histogram: 1 0 1 0 1 0 0 0 0 1
Neighs:        892.250 ave         994 max         784 min
Histogram: 1 1 0 0 0 0 0 0 0 2

Total # of neighbors = 3569
Ave neighs/atom = 8.4976190
Neighbor list builds = 627
Dangerous builds = 0
Total wall time: 0:00:01
