ITEM: TIMESTEP
0
ITEM: NUMBER OF ATOMS
420
ITEM: BOX BOUNDS pp ss pp
0.0000000000000000e+00 2.2653923264628304e+01
-1.9618873042551413e-03 1.9620834929855668e+01
-2.8317404080785380e-01 2.8317404080785380e-01
ITEM: ATOMS id type xs ys zs
1 2 0 9.998e-05 0.5
2 2 0.025 0.05009 0.5
3 2 0.05 9.998e-05 0.5
4 2 0.075 0.05009 0.5
5 2 0.1 9.998e-05 0.5
6 2 0.125 0.05009 0.5
7 2 0.15 9.998e-05 0.5
8 2 0.175 0.05009 0.5
9 2 0.2 9.998e-05 0.5
10 2 0.225 0.05009 0.5
11 2 0.25 9.998e-05 0.5
12 2 0.275 0.05009 0.5
13 2 0.3 9.998e-05 0.5
14 2 0.325 0.05009 0.5
15 2 0.35 9.998e-05 0.5
16 2 0.375 0.05009 0.5
17 2 0.4 9.998e-05 0.5
18 2 0.425 0.05009 0.5
19 2 0.45 9.998e-05 0.5
20 2 0.475 0.05009 0.5
21 2 0 0.10008 0.5
23 2 0.05 0.10008 0.5
25 2 0.1 0.10008 0.5
27 2 0.15 0.10008 0.5
29 2 0.2 0.10008 0.5
31 2 0.25 0.10008 0.5
33 2 0.3 0.10008 0.5
35 2 0.35 0.10008 0.5
37 2 0.4 0.10008 0.5
39 2 0.45 0.10008 0.5
22 1 0.025 0.15007 0.5
41 1 0 0.20006 0.5
43 1 0.05 0.20006 0.5
24 1 0.075 0.15007 0.5
45 1 0.1 0.20006 0.5
26 1 0.125 0.15007 0.5
28 1 0.175 0.15007 0.5
47 1 0.15 0.20006 0.5
30 1 0.225 0.15007 0.5
49 1 0.2 0.20006 0.5
32 1 0.275 0.15007 0.5
51 1 0.25 0.20006 0.5
53 1 0.3 0.20006 0.5
34 1 0.325 0.15007 0.5
55 1 0.35 0.20006 0.5
36 1 0.375 0.15007 0.5
38 1 0.425 0.15007 0.5
57 1 0.4 0.20006 0.5
40 1 0.475 0.15007 0.5
59 1 0.45 0.20006 0.5
42 1 0.025 0.25005 0.5
44 1 0.075 0.25005 0.5
46 1 0.125 0.25005 0.5
48 1 0.175 0.25005 0.5
50 1 0.225 0.25005 0.5
52 1 0.275 0.25005 0.5
54 1 0.325 0.25005 0.5
56 1 0.375 0.25005 0.5
58 1 0.425 0.25005 0.5
60 1 0.475 0.25005 0.5
61 1 0 0.30004 0.5
62 1 0.025 0.35003 0.5
63 1 0.05 0.30004 0.5
64 1 0.075 0.35003 0.5
65 1 0.1 0.30004 0.5
66 1 0.125 0.35003 0.5
67 1 0.15 0.30004 0.5
68 1 0.175 0.35003 0.5
69 1 0.2 0.30004 0.5
70 1 0.225 0.35003 0.5
71 1 0.25 0.30004 0.5
72 1 0.275 0.35003 0.5
73 1 0.3 0.30004 0.5
74 1 0.325 0.35003 0.5
75 1 0.35 0.30004 0.5
76 1 0.375 0.35003 0.5
77 1 0.4 0.30004 0.5
78 1 0.425 0.35003 0.5
79 1 0.45 0.30004 0.5
80 1 0.475 0.35003 0.5
81 1 0 0.40002 0.5
83 1 0.05 0.40002 0.5
85 1 0.1 0.40002 0.5
87 1 0.15 0.40002 0.5
89 1 0.2 0.40002 0.5
91 1 0.25 0.40002 0.5
93 1 0.3 0.40002 0.5
95 1 0.35 0.40002 0.5
97 1 0.4 0.40002 0.5
99 1 0.45 0.40002 0.5
82 1 0.025 0.45001 0.5
84 1 0.075 0.45001 0.5
86 1 0.125 0.45001 0.5
88 1 0.175 0.45001 0.5
90 1 0.225 0.45001 0.5
92 1 0.275 0.45001 0.5
94 1 0.325 0.45001 0.5
96 1 0.375 0.45001 0.5
98 1 0.425 0.45001 0.5
100 1 0.475 0.45001 0.5
101 1 0 0.5 0.5
102 1 0.025 0.54999 0.5
103 1 0.05 0.5 0.5
104 1 0.075 0.54999 0.5
105 1 0.1 0.5 0.5
106 1 0.125 0.54999 0.5
107 1 0.15 0.5 0.5
108 1 0.175 0.54999 0.5
109 1 0.2 0.5 0.5
110 1 0.225 0.54999 0.5
111 1 0.25 0.5 0.5
112 1 0.275 0.54999 0.5
113 1 0.3 0.5 0.5
114 1 0.325 0.54999 0.5
115 1 0.35 0.5 0.5
116 1 0.375 0.54999 0.5
117 1 0.4 0.5 0.5
118 1 0.425 0.54999 0.5
119 1 0.45 0.5 0.5
120 1 0.475 0.54999 0.5
121 1 0 0.59998 0.5
123 1 0.05 0.59998 0.5
125 1 0.1 0.59998 0.5
127 1 0.15 0.59998 0.5
129 1 0.2 0.59998 0.5
131 1 0.25 0.59998 0.5
133 1 0.3 0.59998 0.5
135 1 0.35 0.59998 0.5
137 1 0.4 0.59998 0.5
139 1 0.45 0.59998 0.5
122 1 0.025 0.64997 0.5
141 1 0 0.69996 0.5
143 1 0.05 0.69996 0.5
124 1 0.075 0.64997 0.5
145 1 0.1 0.69996 0.5
126 1 0.125 0.64997 0.5
128 1 0.175 0.64997 0.5
147 1 0.15 0.69996 0.5
130 1 0.225 0.64997 0.5
149 1 0.2 0.69996 0.5
132 1 0.275 0.64997 0.5
151 1 0.25 0.69996 0.5
153 1 0.3 0.69996 0.5
134 1 0.325 0.64997 0.5
155 1 0.35 0.69996 0.5
136 1 0.375 0.64997 0.5
138 1 0.425 0.64997 0.5
157 1 0.4 0.69996 0.5
140 1 0.475 0.64997 0.5
159 1 0.45 0.69996 0.5
142 1 0.025 0.74995 0.5
144 1 0.075 0.74995 0.5
146 1 0.125 0.74995 0.5
148 1 0.175 0.74995 0.5
150 1 0.225 0.74995 0.5
152 1 0.275 0.74995 0.5
154 1 0.325 0.74995 0.5
156 1 0.375 0.74995 0.5
158 1 0.425 0.74995 0.5
160 1 0.475 0.74995 0.5
161 1 0 0.79994 0.5
162 1 0.025 0.84993 0.5
163 1 0.05 0.79994 0.5
164 1 0.075 0.84993 0.5
165 1 0.1 0.79994 0.5
166 1 0.125 0.84993 0.5
167 1 0.15 0.79994 0.5
168 1 0.175 0.84993 0.5
169 1 0.2 0.79994 0.5
170 1 0.225 0.84993 0.5
171 1 0.25 0.79994 0.5
172 1 0.275 0.84993 0.5
173 1 0.3 0.79994 0.5
174 1 0.325 0.84993 0.5
175 1 0.35 0.79994 0.5
176 1 0.375 0.84993 0.5
177 1 0.4 0.79994 0.5
178 1 0.425 0.84993 0.5
179 1 0.45 0.79994 0.5
180 1 0.475 0.84993 0.5
181 1 0 0.89992 0.5
183 1 0.05 0.89992 0.5
185 1 0.1 0.89992 0.5
187 1 0.15 0.89992 0.5
189 1 0.2 0.89992 0.5
191 1 0.25 0.89992 0.5
193 1 0.3 0.89992 0.5
195 1 0.35 0.89992 0.5
197 1 0.4 0.89992 0.5
199 1 0.45 0.89992 0.5
182 1 0.025 0.94991 0.5
201 1 0 0.9999 0.5
202 1 0.05 0.9999 0.5
184 1 0.075 0.94991 0.5
203 1 0.1 0.9999 0.5
186 1 0.125 0.94991 0.5
188 1 0.175 0.94991 0.5
204 1 0.15 0.9999 0.5
190 1 0.225 0.94991 0.5
205 1 0.2 0.9999 0.5
192 1 0.275 0.94991 0.5
206 1 0.25 0.9999 0.5
207 1 0.3 0.9999 0.5
194 1 0.325 0.94991 0.5
208 1 0.35 0.9999 0.5
196 1 0.375 0.94991 0.5
198 1 0.425 0.94991 0.5
209 1 0.4 0.9999 0.5
200 1 0.475 0.94991 0.5
210 1 0.45 0.9999 0.5
211 2 0.5 9.998e-05 0.5
212 2 0.525 0.05009 0.5
213 2 0.55 9.998e-05 0.5
214 2 0.575 0.05009 0.5
215 2 0.6 9.998e-05 0.5
216 2 0.625 0.05009 0.5
217 2 0.65 9.998e-05 0.5
218 2 0.675 0.05009 0.5
219 2 0.7 9.998e-05 0.5
220 2 0.725 0.05009 0.5
221 2 0.75 9.998e-05 0.5
222 2 0.775 0.05009 0.5
223 2 0.8 9.998e-05 0.5
224 2 0.825 0.05009 0.5
225 2 0.85 9.998e-05 0.5
226 2 0.875 0.05009 0.5
227 2 0.9 9.998e-05 0.5
228 2 0.925 0.05009 0.5
229 2 0.95 9.998e-05 0.5
230 2 0.975 0.05009 0.5
231 2 0.5 0.10008 0.5
233 2 0.55 0.10008 0.5
235 2 0.6 0.10008 0.5
237 2 0.65 0.10008 0.5
239 2 0.7 0.10008 0.5
241 2 0.75 0.10008 0.5
243 2 0.8 0.10008 0.5
245 2 0.85 0.10008 0.5
247 2 0.9 0.10008 0.5
249 2 0.95 0.10008 0.5
232 1 0.525 0.15007 0.5
251 1 0.5 0.20006 0.5
253 1 0.55 0.20006 0.5
234 1 0.575 0.15007 0.5
255 1 0.6 0.20006 0.5
236 1 0.625 0.15007 0.5
238 1 0.675 0.15007 0.5
257 1 0.65 0.20006 0.5
240 1 0.725 0.15007 0.5
259 1 0.7 0.20006 0.5
242 1 0.775 0.15007 0.5
261 1 0.75 0.20006 0.5
263 1 0.8 0.20006 0.5
244 1 0.825 0.15007 0.5
265 1 0.85 0.20006 0.5
246 1 0.875 0.15007 0.5
248 1 0.925 0.15007 0.5
267 1 0.9 0.20006 0.5
250 1 0.975 0.15007 0.5
269 1 0.95 0.20006 0.5
252 1 0.525 0.25005 0.5
254 1 0.575 0.25005 0.5
256 1 0.625 0.25005 0.5
258 1 0.675 0.25005 0.5
260 1 0.725 0.25005 0.5
262 1 0.775 0.25005 0.5
264 1 0.825 0.25005 0.5
266 1 0.875 0.25005 0.5
268 1 0.925 0.25005 0.5
270 1 0.975 0.25005 0.5
271 1 0.5 0.30004 0.5
272 1 0.525 0.35003 0.5
273 1 0.55 0.30004 0.5
274 1 0.575 0.35003 0.5
275 1 0.6 0.30004 0.5
276 1 0.625 0.35003 0.5
277 1 0.65 0.30004 0.5
278 1 0.675 0.35003 0.5
279 1 0.7 0.30004 0.5
280 1 0.725 0.35003 0.5
281 1 0.75 0.30004 0.5
282 1 0.775 0.35003 0.5
283 1 0.8 0.30004 0.5
284 1 0.825 0.35003 0.5
285 1 0.85 0.30004 0.5
286 1 0.875 0.35003 0.5
287 1 0.9 0.30004 0.5
288 1 0.925 0.35003 0.5
289 1 0.95 0.30004 0.5
290 1 0.975 0.35003 0.5
291 1 0.5 0.40002 0.5
293 1 0.55 0.40002 0.5
295 1 0.6 0.40002 0.5
297 1 0.65 0.40002 0.5
299 1 0.7 0.40002 0.5
301 1 0.75 0.40002 0.5
303 1 0.8 0.40002 0.5
305 1 0.85 0.40002 0.5
307 1 0.9 0.40002 0.5
309 1 0.95 0.40002 0.5
292 1 0.525 0.45001 0.5
294 1 0.575 0.45001 0.5
296 1 0.625 0.45001 0.5
298 1 0.675 0.45001 0.5
300 1 0.725 0.45001 0.5
302 1 0.775 0.45001 0.5
304 1 0.825 0.45001 0.5
306 1 0.875 0.45001 0.5
308 1 0.925 0.45001 0.5
310 1 0.975 0.45001 0.5
311 1 0.5 0.5 0.5
312 1 0.525 0.54999 0.5
313 1 0.55 0.5 0.5
314 1 0.575 0.54999 0.5
315 1 0.6 0.5 0.5
316 1 0.625 0.54999 0.5
317 1 0.65 0.5 0.5
318 1 0.675 0.54999 0.5
319 1 0.7 0.5 0.5
320 1 0.725 0.54999 0.5
321 1 0.75 0.5 0.5
322 1 0.775 0.54999 0.5
323 1 0.8 0.5 0.5
324 1 0.825 0.54999 0.5
325 1 0.85 0.5 0.5
326 1 0.875 0.54999 0.5
327 1 0.9 0.5 0.5
328 1 0.925 0.54999 0.5
329 1 0.95 0.5 0.5
330 1 0.975 0.54999 0.5
331 1 0.5 0.59998 0.5
333 1 0.55 0.59998 0.5
335 1 0.6 0.59998 0.5
337 1 0.65 0.59998 0.5
339 1 0.7 0.59998 0.5
341 1 0.75 0.59998 0.5
343 1 0.8 0.59998 0.5
345 1 0.85 0.59998 0.5
347 1 0.9 0.59998 0.5
349 1 0.95 0.59998 0.5
332 1 0.525 0.64997 0.5
351 1 0.5 0.69996 0.5
353 1 0.55 0.69996 0.5
334 1 0.575 0.64997 0.5
355 1 0.6 0.69996 0.5
336 1 0.625 0.64997 0.5
338 1 0.675 0.64997 0.5
357 1 0.65 0.69996 0.5
340 1 0.725 0.64997 0.5
359 1 0.7 0.69996 0.5
342 1 0.775 0.64997 0.5
361 1 0.75 0.69996 0.5
363 1 0.8 0.69996 0.5
344 1 0.825 0.64997 0.5
365 1 0.85 0.69996 0.5
346 1 0.875 0.64997 0.5
348 1 0.925 0.64997 0.5
367 1 0.9 0.69996 0.5
350 1 0.975 0.64997 0.5
369 1 0.95 0.69996 0.5
352 1 0.525 0.74995 0.5
354 1 0.575 0.74995 0.5
356 1 0.625 0.74995 0.5
358 1 0.675 0.74995 0.5
360 1 0.725 0.74995 0.5
362 1 0.775 0.74995 0.5
364 1 0.825 0.74995 0.5
366 1 0.875 0.74995 0.5
368 1 0.925 0.74995 0.5
370 1 0.975 0.74995 0.5
371 1 0.5 0.79994 0.5
372 1 0.525 0.84993 0.5
373 1 0.55 0.79994 0.5
374 1 0.575 0.84993 0.5
375 1 0.6 0.79994 0.5
376 1 0.625 0.84993 0.5
377 1 0.65 0.79994 0.5
378 1 0.675 0.84993 0.5
379 1 0.7 0.79994 0.5
380 1 0.725 0.84993 0.5
381 1 0.75 0.79994 0.5
382 1 0.775 0.84993 0.5
383 1 0.8 0.79994 0.5
384 1 0.825 0.84993 0.5
385 1 0.85 0.79994 0.5
386 1 0.875 0.84993 0.5
387 1 0.9 0.79994 0.5
388 1 0.925 0.84993 0.5
389 1 0.95 0.79994 0.5
390 1 0.975 0.84993 0.5
391 1 0.5 0.89992 0.5
393 1 0.55 0.89992 0.5
395 1 0.6 0.89992 0.5
397 1 0.65 0.89992 0.5
399 1 0.7 0.89992 0.5
401 1 0.75 0.89992 0.5
403 1 0.8 0.89992 0.5
405 1 0.85 0.89992 0.5
407 1 0.9 0.89992 0.5
409 1 0.95 0.89992 0.5
392 1 0.525 0.94991 0.5
411 1 0.5 0.9999 0.5
412 1 0.55 0.9999 0.5
394 1 0.575 0.94991 0.5
413 1 0.6 0.9999 0.5
396 1 0.625 0.94991 0.5
398 1 0.675 0.94991 0.5
414 1 0.65 0.9999 0.5
400 1 0.725 0.94991 0.5
415 1 0.7 0.9999 0.5
402 1 0.775 0.94991 0.5
416 1 0.75 0.9999 0.5
417 1 0.8 0.9999 0.5
404 1 0.825 0.94991 0.5
418 1 0.85 0.9999 0.5
406 1 0.875 0.94991 0.5
408 1 0.925 0.94991 0.5
419 1 0.9 0.9999 0.5
410 1 0.975 0.94991 0.5
420 1 0.95 0.9999 0.5
ITEM: TIMESTEP
250
ITEM: NUMBER OF ATOMS
420
ITEM: BOX BOUNDS pp ss pp
0.0000000000000000e+00 2.2653923264628304e+01
-1.9618873042551413e-03 1.9641017514184202e+01
-2.8317404080785380e-01 2.8317404080785380e-01
ITEM: ATOMS id type xs ys zs
1 2 0 9.98773e-05 0.5
2 2 0.025 0.0500385 0.5
3 2 0.05 9.98773e-05 0.5
4 2 0.075 0.0500385 0.5
5 2 0.1 9.98773e-05 0.5
6 2 0.125 0.0500385 0.5
7 2 0.15 9.98773e-05 0.5
8 2 0.175 0.0500385 0.5
9 2 0.2 9.98773e-05 0.5
10 2 0.225 0.0500385 0.5
11 2 0.25 9.98773e-05 0.5
12 2 0.275 0.0500385 0.5
13 2 0.3 9.98773e-05 0.5
14 2 0.325 0.0500385 0.5
15 2 0.35 9.98773e-05 0.5
16 2 0.375 0.0500385 0.5
17 2 0.4 9.98773e-05 0.5
18 2 0.425 0.0500385 0.5
19 2 0.45 9.98773e-05 0.5
20 2 0.475 0.0500385 0.5
21 2 0 0.0999772 0.5
23 2 0.05 0.0999772 0.5
25 2 0.1 0.0999772 0.5
27 2 0.15 0.0999772 0.5
29 2 0.2 0.0999772 0.5
31 2 0.25 0.0999772 0.5
33 2 0.3 0.0999772 0.5
35 2 0.35 0.0999772 0.5
37 2 0.4 0.0999772 0.5
39 2 0.45 0.0999772 0.5
22 1 0.0249673 0.148953 0.5
100 1 0.473296 0.449125 0.5
43 1 0.0511059 0.196948 0.5
24 1 0.0757585 0.150913 0.5
45 1 0.101953 0.195748 0.5
26 1 0.125832 0.148648 0.5
28 1 0.17591 0.15044 0.5
47 1 0.151539 0.197146 0.5
30 1 0.229019 0.150274 0.5
49 1 0.199587 0.198922 0.5
32 1 0.276673 0.150823 0.5
51 1 0.248266 0.201784 0.5
53 1 0.303391 0.20034 0.5
34 1 0.325704 0.150855 0.5
55 1 0.353496 0.197967 0.5
36 1 0.376183 0.148738 0.5
38 1 0.424698 0.147917 0.5
57 1 0.401425 0.195723 0.5
40 1 0.477634 0.150877 0.5
59 1 0.450719 0.195619 0.5
42 1 0.0250206 0.248071 0.5
44 1 0.0739793 0.247266 0.5
46 1 0.12365 0.25102 0.5
48 1 0.175089 0.248275 0.5
50 1 0.225122 0.251407 0.5
52 1 0.279566 0.249761 0.5
54 1 0.328247 0.248239 0.5
56 1 0.378708 0.247976 0.5
58 1 0.427887 0.246232 0.5
60 1 0.475235 0.250285 0.5
98 1 0.421811 0.449756 0.5
62 1 0.026749 0.346515 0.5
63 1 0.0497458 0.295453 0.5
64 1 0.0749097 0.347794 0.5
65 1 0.101473 0.300249 0.5
66 1 0.124765 0.35033 0.5
67 1 0.151693 0.299365 0.5
68 1 0.174706 0.349802 0.5
69 1 0.199488 0.300372 0.5
70 1 0.226744 0.349247 0.5
71 1 0.25227 0.29658 0.5
72 1 0.276971 0.350821 0.5
73 1 0.303473 0.298917 0.5
74 1 0.32593 0.350666 0.5
75 1 0.350498 0.297715 0.5
76 1 0.378691 0.346385 0.5
77 1 0.400649 0.296432 0.5
78 1 0.424922 0.351798 0.5
79 1 0.449345 0.300204 0.5
80 1 0.473336 0.350111 0.5
81 1 0.000673388 0.397797 0.5
83 1 0.0505771 0.395869 0.5
85 1 0.105444 0.400901 0.5
87 1 0.153248 0.404722 0.5
89 1 0.20278 0.399815 0.5
91 1 0.25163 0.400258 0.5
93 1 0.301468 0.400638 0.5
95 1 0.347941 0.402267 0.5
97 1 0.398531 0.400661 0.5
99 1 0.448916 0.40122 0.5
82 1 0.0275276 0.445477 0.5
84 1 0.0773089 0.447582 0.5
86 1 0.127459 0.455063 0.5
88 1 0.177125 0.454841 0.5
90 1 0.225454 0.450718 0.5
92 1 0.276093 0.449307 0.5
94 1 0.324604 0.453041 0.5
96 1 0.37335 0.451075 0.5
119 1 0.451017 0.498123 0.5
103 1 0.0515584 0.497817 0.5
101 1 0.00358056 0.496061 0.5
111 1 0.248159 0.501484 0.5
41 1 0.00098912 0.198126 0.5
291 1 0.498465 0.401624 0.5
271 1 0.499275 0.30103 0.5
117 1 0.399587 0.496986 0.5
190 1 0.220275 0.944878 0.5
102 1 0.0248487 0.550101 0.5
204 1 0.149962 0.999318 0.5
104 1 0.0746981 0.549061 0.5
196 1 0.374772 0.941957 0.5
106 1 0.124393 0.55413 0.5
208 1 0.352175 0.99067 0.5
108 1 0.175652 0.55468 0.5
194 1 0.32507 0.94202 0.5
110 1 0.223524 0.556097 0.5
115 1 0.3499 0.500329 0.5
112 1 0.271458 0.550657 0.5
207 1 0.295419 0.997116 0.5
114 1 0.325065 0.549849 0.5
206 1 0.246863 0.988889 0.5
116 1 0.373538 0.546917 0.5
192 1 0.275115 0.948093 0.5
118 1 0.424489 0.546701 0.5
205 1 0.199699 0.996835 0.5
120 1 0.474214 0.548172 0.5
210 1 0.453441 0.995223 0.5
123 1 0.0482191 0.599427 0.5
125 1 0.0970481 0.598714 0.5
127 1 0.149506 0.602188 0.5
129 1 0.197526 0.60608 0.5
131 1 0.2491 0.603273 0.5
133 1 0.298877 0.598335 0.5
135 1 0.347324 0.600048 0.5
137 1 0.398275 0.598076 0.5
139 1 0.44858 0.598612 0.5
122 1 0.0253883 0.649885 0.5
200 1 0.477945 0.943356 0.5
143 1 0.0475397 0.700083 0.5
124 1 0.0741647 0.649224 0.5
145 1 0.097634 0.699343 0.5
126 1 0.123937 0.649604 0.5
128 1 0.172849 0.653856 0.5
147 1 0.146754 0.704292 0.5
130 1 0.222642 0.654554 0.5
149 1 0.196619 0.700397 0.5
132 1 0.274153 0.652828 0.5
151 1 0.250375 0.701046 0.5
153 1 0.300901 0.701444 0.5
134 1 0.323746 0.646802 0.5
155 1 0.352815 0.70161 0.5
136 1 0.377761 0.650113 0.5
138 1 0.425503 0.64738 0.5
157 1 0.400563 0.699579 0.5
140 1 0.473971 0.645131 0.5
159 1 0.451921 0.696703 0.5
142 1 0.0247622 0.747861 0.5
144 1 0.0731292 0.748171 0.5
146 1 0.122399 0.7501 0.5
148 1 0.173759 0.752725 0.5
150 1 0.223374 0.749251 0.5
152 1 0.274237 0.75277 0.5
154 1 0.325744 0.75072 0.5
156 1 0.375333 0.749364 0.5
158 1 0.428763 0.745748 0.5
160 1 0.480494 0.744892 0.5
188 1 0.168497 0.948217 0.5
162 1 0.0225111 0.848355 0.5
163 1 0.0482664 0.797467 0.5
164 1 0.0714615 0.846814 0.5
165 1 0.0969568 0.79744 0.5
166 1 0.119957 0.849902 0.5
167 1 0.146853 0.802323 0.5
168 1 0.172552 0.851515 0.5
169 1 0.195789 0.802196 0.5
170 1 0.219726 0.851625 0.5
171 1 0.246322 0.800547 0.5
172 1 0.271489 0.84863 0.5
173 1 0.297057 0.79947 0.5
174 1 0.321499 0.84674 0.5
175 1 0.35048 0.800129 0.5
176 1 0.380265 0.850595 0.5
177 1 0.405047 0.796804 0.5
178 1 0.428952 0.846344 0.5
179 1 0.455944 0.794884 0.5
180 1 0.476683 0.844887 0.5
209 1 0.400911 0.991932 0.5
183 1 0.0454488 0.897631 0.5
185 1 0.0927773 0.89693 0.5
187 1 0.14488 0.897566 0.5
189 1 0.194795 0.90051 0.5
191 1 0.248844 0.901234 0.5
193 1 0.297882 0.895406 0.5
195 1 0.351077 0.892937 0.5
197 1 0.402261 0.89875 0.5
199 1 0.452114 0.894636 0.5
182 1 0.0203529 0.94714 0.5
198 1 0.427272 0.947537 0.5
202 1 0.0434931 0.99978 0.5
184 1 0.0684605 0.945245 0.5
203 1 0.09609 0.994705 0.5
186 1 0.119212 0.946649 0.5
331 1 0.497088 0.596619 0.5
109 1 0.198626 0.503418 0.5
107 1 0.150364 0.504833 0.5
113 1 0.298776 0.499844 0.5
105 1 0.0998739 0.502034 0.5
211 2 0.5 9.98773e-05 0.5
212 2 0.525 0.0500385 0.5
213 2 0.55 9.98773e-05 0.5
214 2 0.575 0.0500385 0.5
215 2 0.6 9.98773e-05 0.5
216 2 0.625 0.0500385 0.5
217 2 0.65 9.98773e-05 0.5
218 2 0.675 0.0500385 0.5
219 2 0.7 9.98773e-05 0.5
220 2 0.725 0.0500385 0.5
221 2 0.75 9.98773e-05 0.5
222 2 0.775 0.0500385 0.5
223 2 0.8 9.98773e-05 0.5
224 2 0.825 0.0500385 0.5
225 2 0.85 9.98773e-05 0.5
226 2 0.875 0.0500385 0.5
227 2 0.9 9.98773e-05 0.5
228 2 0.925 0.0500385 0.5
229 2 0.95 9.98773e-05 0.5
230 2 0.975 0.0500385 0.5
231 2 0.5 0.0999772 0.5
233 2 0.55 0.0999772 0.5
235 2 0.6 0.0999772 0.5
237 2 0.65 0.0999772 0.5
239 2 0.7 0.0999772 0.5
241 2 0.75 0.0999772 0.5
243 2 0.8 0.0999772 0.5
245 2 0.85 0.0999772 0.5
247 2 0.9 0.0999772 0.5
249 2 0.95 0.0999772 0.5
232 1 0.528157 0.148497 0.5
251 1 0.502883 0.199589 0.5
253 1 0.55216 0.200531 0.5
234 1 0.575437 0.14897 0.5
255 1 0.602658 0.199995 0.5
236 1 0.625877 0.151361 0.5
238 1 0.675329 0.147223 0.5
257 1 0.65139 0.199645 0.5
240 1 0.723874 0.148603 0.5
259 1 0.698612 0.198622 0.5
242 1 0.773658 0.151567 0.5
261 1 0.747787 0.202492 0.5
263 1 0.79747 0.201445 0.5
244 1 0.823178 0.149097 0.5
265 1 0.847514 0.200728 0.5
246 1 0.872109 0.150062 0.5
248 1 0.924306 0.151665 0.5
267 1 0.896967 0.200252 0.5
250 1 0.97605 0.151279 0.5
269 1 0.951383 0.199797 0.5
252 1 0.525143 0.251198 0.5
254 1 0.574597 0.253506 0.5
256 1 0.623074 0.249141 0.5
258 1 0.67678 0.250325 0.5
260 1 0.723077 0.249216 0.5
262 1 0.772346 0.250523 0.5
264 1 0.820735 0.251249 0.5
266 1 0.873335 0.248042 0.5
268 1 0.925001 0.248279 0.5
270 1 0.977211 0.248173 0.5
313 1 0.550028 0.497877 0.5
272 1 0.525029 0.352661 0.5
273 1 0.54878 0.301728 0.5
274 1 0.574757 0.350001 0.5
275 1 0.601443 0.301081 0.5
276 1 0.625951 0.352522 0.5
277 1 0.651998 0.299952 0.5
278 1 0.676048 0.351384 0.5
279 1 0.700962 0.30181 0.5
280 1 0.727346 0.351106 0.5
281 1 0.749989 0.299163 0.5
282 1 0.775329 0.351976 0.5
283 1 0.798154 0.301723 0.5
284 1 0.825481 0.347506 0.5
285 1 0.84936 0.298714 0.5
286 1 0.872749 0.346308 0.5
287 1 0.90431 0.299844 0.5
288 1 0.92711 0.348473 0.5
289 1 0.951817 0.29501 0.5
290 1 0.976762 0.348897 0.5
329 1 0.949883 0.496065 0.5
293 1 0.550114 0.400209 0.5
295 1 0.601018 0.403573 0.5
297 1 0.653442 0.40191 0.5
299 1 0.70399 0.399576 0.5
301 1 0.752049 0.405353 0.5
303 1 0.800093 0.401259 0.5
305 1 0.848126 0.398818 0.5
307 1 0.9003 0.395903 0.5
309 1 0.951032 0.396503 0.5
292 1 0.526281 0.447442 0.5
294 1 0.574332 0.450648 0.5
296 1 0.625147 0.451826 0.5
298 1 0.676389 0.452322 0.5
300 1 0.727003 0.453655 0.5
302 1 0.778816 0.453507 0.5
304 1 0.826365 0.450195 0.5
306 1 0.874785 0.445691 0.5
308 1 0.922966 0.447226 0.5
310 1 0.977604 0.448843 0.5
327 1 0.899863 0.495727 0.5
311 1 0.500455 0.498339 0.5
61 1 0.99962 0.298889 0.5
325 1 0.850216 0.499959 0.5
420 1 0.944489 0.99962 0.5
312 1 0.523126 0.547015 0.5
201 1 0.994618 0.999456 0.5
314 1 0.571875 0.546686 0.5
181 1 0.997214 0.897092 0.5
316 1 0.622876 0.552679 0.5
161 1 1.00029 0.800029 0.5
318 1 0.6754 0.549625 0.5
351 1 0.499742 0.694589 0.5
320 1 0.725644 0.550302 0.5
141 1 0.99875 0.698773 0.5
322 1 0.775799 0.553485 0.5
321 1 0.750963 0.500819 0.5
324 1 0.825502 0.553214 0.5
408 1 0.92436 0.944854 0.5
326 1 0.877967 0.549432 0.5
406 1 0.873602 0.944552 0.5
328 1 0.9257 0.545538 0.5
418 1 0.847284 0.992554 0.5
330 1 0.973966 0.547538 0.5
404 1 0.823362 0.944865 0.5
333 1 0.549069 0.597144 0.5
335 1 0.600329 0.600541 0.5
337 1 0.651154 0.600445 0.5
339 1 0.700238 0.595817 0.5
341 1 0.749708 0.597783 0.5
343 1 0.799847 0.599208 0.5
345 1 0.852317 0.600176 0.5
347 1 0.902821 0.598738 0.5
349 1 0.951754 0.597072 0.5
332 1 0.523668 0.645269 0.5
410 1 0.972052 0.949043 0.5
353 1 0.550616 0.695853 0.5
334 1 0.573749 0.64804 0.5
355 1 0.600334 0.695347 0.5
336 1 0.623527 0.646074 0.5
338 1 0.676525 0.64851 0.5
357 1 0.650477 0.695475 0.5
340 1 0.726613 0.646771 0.5
359 1 0.703189 0.697993 0.5
342 1 0.776718 0.649432 0.5
361 1 0.752778 0.697791 0.5
363 1 0.803118 0.700195 0.5
344 1 0.825045 0.647533 0.5
365 1 0.849558 0.698185 0.5
346 1 0.875218 0.650256 0.5
348 1 0.925513 0.648111 0.5
367 1 0.899466 0.697984 0.5
350 1 0.974396 0.647641 0.5
369 1 0.948719 0.69841 0.5
352 1 0.527631 0.746405 0.5
354 1 0.576208 0.746509 0.5
356 1 0.624549 0.745106 0.5
358 1 0.675092 0.746755 0.5
360 1 0.72801 0.748706 0.5
362 1 0.777184 0.746644 0.5
364 1 0.825211 0.750782 0.5
366 1 0.872947 0.74898 0.5
368 1 0.922212 0.748864 0.5
370 1 0.971097 0.748989 0.5
417 1 0.797769 0.999371 0.5
372 1 0.526384 0.845593 0.5
373 1 0.551391 0.796503 0.5
374 1 0.575442 0.845282 0.5
375 1 0.600405 0.797565 0.5
376 1 0.624557 0.845543 0.5
377 1 0.649626 0.794763 0.5
378 1 0.673385 0.84256 0.5
379 1 0.701218 0.79223 0.5
380 1 0.725041 0.844401 0.5
381 1 0.75454 0.795914 0.5
382 1 0.777119 0.84796 0.5
383 1 0.799781 0.797222 0.5
384 1 0.82547 0.847508 0.5
385 1 0.852797 0.800119 0.5
386 1 0.874934 0.848768 0.5
387 1 0.899205 0.798201 0.5
388 1 0.924271 0.847149 0.5
389 1 0.948762 0.797948 0.5
390 1 0.973956 0.846825 0.5
391 1 0.501747 0.897235 0.5
393 1 0.55175 0.893173 0.5
395 1 0.60301 0.893833 0.5
397 1 0.651071 0.891908 0.5
399 1 0.697809 0.892501 0.5
401 1 0.750187 0.893853 0.5
403 1 0.80054 0.896803 0.5
405 1 0.851036 0.895299 0.5
407 1 0.899043 0.895502 0.5
409 1 0.947036 0.897844 0.5
392 1 0.528208 0.942551 0.5
419 1 0.895504 0.998203 0.5
412 1 0.553948 0.988359 0.5
394 1 0.578044 0.941777 0.5
413 1 0.603616 0.993678 0.5
396 1 0.625286 0.942859 0.5
398 1 0.673504 0.943008 0.5
414 1 0.652203 0.995918 0.5
400 1 0.726214 0.944839 0.5
415 1 0.702783 0.99161 0.5
402 1 0.775863 0.942175 0.5
416 1 0.752483 0.98981 0.5
411 1 0.505372 0.990237 0.5
371 1 0.504366 0.797303 0.5
319 1 0.701269 0.500219 0.5
317 1 0.650702 0.499742 0.5
121 1 0.99941 0.602336 0.5
323 1 0.800656 0.505187 0.5
315 1 0.600932 0.498611 0.5
ITEM: TIMESTEP
500
ITEM: NUMBER OF ATOMS
420
ITEM: BOX BOUNDS pp ss pp
0.0000000000000000e+00 2.2653923264628304e+01
-1.9618873042551413e-03 1.9640417372084691e+01
-2.8317404080785380e-01 2.8317404080785380e-01
ITEM: ATOMS id type xs ys zs
1 2 0 9.98803e-05 0.5
2 2 0.025 0.05004 0.5
3 2 0.05 9.98803e-05 0.5
4 2 0.075 0.05004 0.5
5 2 0.1 9.98803e-05 0.5
6 2 0.125 0.05004 0.5
7 2 0.15 9.98803e-05 0.5
8 2 0.175 0.05004 0.5
9 2 0.2 9.98803e-05 0.5
10 2 0.225 0.05004 0.5
11 2 0.25 9.98803e-05 0.5
12 2 0.275 0.05004 0.5
13 2 0.3 9.98803e-05 0.5
14 2 0.325 0.05004 0.5
15 2 0.35 9.98803e-05 0.5
16 2 0.375 0.05004 0.5
17 2 0.4 9.98803e-05 0.5
18 2 0.425 0.05004 0.5
19 2 0.45 9.98803e-05 0.5
20 2 0.475 0.05004 0.5
21 2 0 0.0999802 0.5
23 2 0.05 0.0999802 0.5
25 2 0.1 0.0999802 0.5
27 2 0.15 0.0999802 0.5
29 2 0.2 0.0999802 0.5
31 2 0.25 0.0999802 0.5
33 2 0.3 0.0999802 0.5
35 2 0.35 0.0999802 0.5
37 2 0.4 0.0999802 0.5
39 2 0.45 0.0999802 0.5
22 1 0.0249321 0.150459 0.5
100 1 0.473592 0.45091 0.5
43 1 0.0526438 0.202637 0.5
24 1 0.0748778 0.150177 0.5
45 1 0.0997915 0.200335 0.5
26 1 0.124948 0.149897 0.5
28 1 0.173549 0.148836 0.5
47 1 0.149445 0.197169 0.5
30 1 0.225973 0.149349 0.5
49 1 0.197639 0.196399 0.5
32 1 0.27408 0.150782 0.5
51 1 0.247283 0.199832 0.5
53 1 0.299803 0.199601 0.5
34 1 0.324644 0.151957 0.5
55 1 0.346432 0.202308 0.5
36 1 0.374731 0.151327 0.5
38 1 0.421726 0.14941 0.5
57 1 0.397465 0.202655 0.5
40 1 0.473023 0.148356 0.5
59 1 0.447704 0.201549 0.5
42 1 0.0245482 0.252041 0.5
44 1 0.0757847 0.250673 0.5
46 1 0.126245 0.253417 0.5
48 1 0.176216 0.251599 0.5
50 1 0.223932 0.248876 0.5
52 1 0.274083 0.248508 0.5
54 1 0.323437 0.253215 0.5
56 1 0.37249 0.256558 0.5
58 1 0.423441 0.251573 0.5
60 1 0.472064 0.249945 0.5
98 1 0.425588 0.447561 0.5
62 1 0.0249134 0.348397 0.5
63 1 0.050476 0.299456 0.5
64 1 0.074521 0.349097 0.5
65 1 0.0979093 0.300129 0.5
66 1 0.122806 0.350385 0.5
67 1 0.15076 0.300278 0.5
68 1 0.174392 0.347872 0.5
69 1 0.200817 0.300341 0.5
70 1 0.223665 0.349394 0.5
71 1 0.250371 0.297134 0.5
72 1 0.274424 0.352643 0.5
73 1 0.298452 0.301181 0.5
74 1 0.3223 0.351567 0.5
75 1 0.344937 0.3017 0.5
76 1 0.372247 0.349161 0.5
77 1 0.400271 0.304394 0.5
78 1 0.427378 0.350654 0.5
79 1 0.451529 0.301467 0.5
80 1 0.477351 0.350706 0.5
81 1 0.0027527 0.401172 0.5
83 1 0.0515044 0.397151 0.5
85 1 0.10043 0.399698 0.5
87 1 0.149196 0.401359 0.5
89 1 0.201085 0.401637 0.5
91 1 0.250753 0.398176 0.5
93 1 0.299332 0.400788 0.5
95 1 0.349901 0.398446 0.5
97 1 0.399813 0.397395 0.5
99 1 0.451682 0.401818 0.5
82 1 0.0259944 0.45018 0.5
84 1 0.0739724 0.448939 0.5
86 1 0.122682 0.451185 0.5
88 1 0.173409 0.448359 0.5
90 1 0.225627 0.447263 0.5
92 1 0.275294 0.450069 0.5
94 1 0.326349 0.446099 0.5
96 1 0.377047 0.448031 0.5
251 1 0.498142 0.19734 0.5
41 1 0.00255743 0.199287 0.5
109 1 0.200106 0.49468 0.5
61 1 0.000505711 0.302104 0.5
107 1 0.1512 0.497583 0.5
111 1 0.24733 0.496513 0.5
117 1 0.402704 0.499544 0.5
113 1 0.302264 0.497238 0.5
105 1 0.0982455 0.498028 0.5
101 1 0.00233392 0.499522 0.5
103 1 0.0505536 0.497452 0.5
190 1 0.225455 0.943828 0.5
102 1 0.0263263 0.548927 0.5
204 1 0.149913 0.995046 0.5
104 1 0.0744721 0.548774 0.5
196 1 0.376782 0.942825 0.5
106 1 0.122682 0.546702 0.5
208 1 0.351499 0.993438 0.5
108 1 0.175205 0.543767 0.5
194 1 0.326703 0.944488 0.5
110 1 0.225147 0.545872 0.5
121 1 0.00204683 0.599174 0.5
112 1 0.273899 0.544188 0.5
207 1 0.304146 0.994535 0.5
114 1 0.32435 0.548524 0.5
206 1 0.252533 0.993264 0.5
116 1 0.373513 0.550376 0.5
192 1 0.276498 0.94798 0.5
118 1 0.422887 0.549284 0.5
205 1 0.198411 0.996 0.5
120 1 0.474958 0.55077 0.5
210 1 0.451743 0.987816 0.5
123 1 0.05103 0.598083 0.5
125 1 0.100547 0.593518 0.5
127 1 0.149288 0.594039 0.5
129 1 0.197936 0.595018 0.5
131 1 0.250714 0.59363 0.5
133 1 0.298302 0.595947 0.5
135 1 0.346965 0.597899 0.5
137 1 0.39729 0.597871 0.5
139 1 0.44684 0.597235 0.5
122 1 0.0271641 0.648794 0.5
200 1 0.477202 0.940132 0.5
143 1 0.0489226 0.698188 0.5
124 1 0.0755211 0.643044 0.5
145 1 0.0973639 0.694718 0.5
126 1 0.12298 0.643549 0.5
128 1 0.172019 0.645506 0.5
147 1 0.147416 0.694381 0.5
130 1 0.222747 0.64397 0.5
149 1 0.198086 0.696442 0.5
132 1 0.272529 0.645071 0.5
151 1 0.247065 0.691301 0.5
153 1 0.296339 0.696977 0.5
134 1 0.321591 0.64465 0.5
155 1 0.348752 0.695276 0.5
136 1 0.37313 0.64756 0.5
138 1 0.424288 0.646954 0.5
157 1 0.396411 0.697468 0.5
140 1 0.472724 0.644821 0.5
159 1 0.44861 0.694965 0.5
142 1 0.0235209 0.747669 0.5
144 1 0.0740312 0.745315 0.5
146 1 0.123423 0.748944 0.5
148 1 0.174604 0.744014 0.5
150 1 0.222914 0.746686 0.5
152 1 0.271061 0.74613 0.5
154 1 0.323018 0.746504 0.5
156 1 0.36973 0.744901 0.5
158 1 0.421766 0.746404 0.5
160 1 0.473609 0.746759 0.5
188 1 0.173973 0.945511 0.5
162 1 0.0241182 0.845031 0.5
163 1 0.0499078 0.795234 0.5
164 1 0.0745385 0.846284 0.5
165 1 0.0999136 0.795923 0.5
166 1 0.123702 0.847858 0.5
167 1 0.15128 0.798403 0.5
168 1 0.175962 0.848074 0.5
169 1 0.198654 0.798494 0.5
170 1 0.22639 0.848846 0.5
171 1 0.247001 0.797671 0.5
172 1 0.272936 0.846402 0.5
173 1 0.295435 0.795857 0.5
174 1 0.322495 0.847443 0.5
175 1 0.347139 0.798584 0.5
176 1 0.373788 0.845462 0.5
177 1 0.39791 0.792032 0.5
178 1 0.421988 0.845049 0.5
179 1 0.44752 0.795287 0.5
180 1 0.471382 0.843781 0.5
209 1 0.402556 0.990932 0.5
183 1 0.0512192 0.894524 0.5
185 1 0.099751 0.898879 0.5
187 1 0.149524 0.89535 0.5
189 1 0.200322 0.898387 0.5
191 1 0.250788 0.897417 0.5
193 1 0.300976 0.898964 0.5
195 1 0.348645 0.894327 0.5
197 1 0.399234 0.891564 0.5
199 1 0.4509 0.893 0.5
182 1 0.0241667 0.94215 0.5
198 1 0.425914 0.940648 0.5
202 1 0.0465204 0.99279 0.5
184 1 0.0732304 0.944381 0.5
203 1 0.0975336 0.999334 0.5
186 1 0.125376 0.945853 0.5
141 1 0.00147261 0.696526 0.5
411 1 0.499042 0.994648 0.5
351 1 0.499108 0.695818 0.5
371 1 0.498116 0.793396 0.5
119 1 0.452774 0.502252 0.5
115 1 0.352152 0.500627 0.5
211 2 0.5 9.98803e-05 0.5
212 2 0.525 0.05004 0.5
213 2 0.55 9.98803e-05 0.5
214 2 0.575 0.05004 0.5
215 2 0.6 9.98803e-05 0.5
216 2 0.625 0.05004 0.5
217 2 0.65 9.98803e-05 0.5
218 2 0.675 0.05004 0.5
219 2 0.7 9.98803e-05 0.5
220 2 0.725 0.05004 0.5
221 2 0.75 9.98803e-05 0.5
222 2 0.775 0.05004 0.5
223 2 0.8 9.98803e-05 0.5
224 2 0.825 0.05004 0.5
225 2 0.85 9.98803e-05 0.5
226 2 0.875 0.05004 0.5
227 2 0.9 9.98803e-05 0.5
228 2 0.925 0.05004 0.5
229 2 0.95 9.98803e-05 0.5
230 2 0.975 0.05004 0.5
231 2 0.5 0.0999802 0.5
233 2 0.55 0.0999802 0.5
235 2 0.6 0.0999802 0.5
237 2 0.65 0.0999802 0.5
239 2 0.7 0.0999802 0.5
241 2 0.75 0.0999802 0.5
243 2 0.8 0.0999802 0.5
245 2 0.85 0.0999802 0.5
247 2 0.9 0.0999802 0.5
249 2 0.95 0.0999802 0.5
232 1 0.525866 0.150456 0.5
319 1 0.700787 0.4948 0.5
253 1 0.549041 0.196964 0.5
234 1 0.577563 0.148175 0.5
255 1 0.600615 0.200525 0.5
236 1 0.626791 0.150329 0.5
238 1 0.675809 0.147421 0.5
257 1 0.653958 0.196581 0.5
240 1 0.727721 0.149356 0.5
259 1 0.703164 0.197941 0.5
242 1 0.775896 0.151428 0.5
261 1 0.753623 0.200829 0.5
263 1 0.80181 0.199804 0.5
244 1 0.824764 0.150042 0.5
265 1 0.851038 0.198577 0.5
246 1 0.876665 0.149399 0.5
248 1 0.928067 0.148475 0.5
267 1 0.900569 0.199541 0.5
250 1 0.977107 0.150082 0.5
269 1 0.954832 0.201683 0.5
252 1 0.524117 0.248265 0.5
254 1 0.574858 0.249169 0.5
256 1 0.625814 0.246512 0.5
258 1 0.675715 0.246718 0.5
260 1 0.726503 0.245354 0.5
262 1 0.779339 0.247936 0.5
264 1 0.828767 0.249222 0.5
266 1 0.876986 0.246049 0.5
268 1 0.925356 0.249336 0.5
270 1 0.974758 0.2526 0.5
323 1 0.801973 0.496424 0.5
272 1 0.527344 0.348106 0.5
273 1 0.551094 0.30034 0.5
274 1 0.577154 0.347226 0.5
275 1 0.600686 0.295042 0.5
276 1 0.62483 0.345759 0.5
277 1 0.650366 0.298999 0.5
278 1 0.674065 0.349703 0.5
279 1 0.702709 0.295877 0.5
280 1 0.728722 0.348433 0.5
281 1 0.753852 0.296906 0.5
282 1 0.776119 0.347108 0.5
283 1 0.805389 0.295855 0.5
284 1 0.82764 0.346408 0.5
285 1 0.852986 0.299185 0.5
286 1 0.87984 0.346951 0.5
287 1 0.903397 0.300321 0.5
288 1 0.928364 0.350742 0.5
289 1 0.952338 0.301957 0.5
290 1 0.976252 0.354254 0.5
321 1 0.750451 0.490384 0.5
293 1 0.55086 0.398047 0.5
295 1 0.598834 0.397699 0.5
297 1 0.646425 0.397872 0.5
299 1 0.699275 0.396216 0.5
301 1 0.750617 0.398427 0.5
303 1 0.80067 0.398845 0.5
305 1 0.850195 0.397653 0.5
307 1 0.900067 0.397018 0.5
309 1 0.95154 0.402039 0.5
292 1 0.522094 0.447052 0.5
294 1 0.571604 0.448495 0.5
296 1 0.622857 0.449498 0.5
298 1 0.673914 0.446988 0.5
300 1 0.722783 0.445077 0.5