LAMMPS (29 Sep 2021 - Update 2)
# 2d micelle simulation

dimension	2

neighbor	0.3 bin
neigh_modify	delay 5

atom_style	bond

# Soft potential push-off

read_data	data.micelle
Reading data file ...
  orthogonal box = (0.0000000 0.0000000 -0.10000000) to (35.856860 35.856860 0.10000000)
  2 by 2 by 1 MPI processor grid
  reading atoms ...
  1200 atoms
  scanning bonds ...
  1 = max bonds/atom
  reading bonds ...
  300 bonds
Finding 1-2 1-3 1-4 neighbors ...
  special bond factors lj:    0        0        0       
  special bond factors coul:  0        0        0       
     2 = max # of 1-2 neighbors
     1 = max # of 1-3 neighbors
     1 = max # of 1-4 neighbors
     2 = max # of special neighbors
  special bonds CPU = 0.000 seconds
  read_data CPU = 0.025 seconds
special_bonds	fene
Finding 1-2 1-3 1-4 neighbors ...
  special bond factors lj:    0        1        1       
  special bond factors coul:  0        1        1       
     2 = max # of 1-2 neighbors
     2 = max # of special neighbors
  special bonds CPU = 0.000 seconds

pair_style	soft 1.12246
pair_coeff	* * 0.0 1.12246

bond_style 	harmonic
bond_coeff	1 50.0 0.75

velocity	all create 0.45 2349852

variable	prefactor equal ramp(1.0,20.0)

fix		1 all nve
fix		2 all temp/rescale 100 0.45 0.45 0.02 1.0
fix		3 all adapt 1 pair soft a * * v_prefactor
fix		4 all enforce2d

thermo		50
run		1000
Neighbor list info ...
  update every 1 steps, delay 5 steps, check yes
  max neighbors/atom: 2000, page size: 100000
  master list distance cutoff = 1.42246
  ghost atom cutoff = 1.42246
  binsize = 0.71123, bins = 51 51 1
  1 neighbor lists, perpetual/occasional/extra = 1 0 0
  (1) pair soft, perpetual
      attributes: half, newton on
      pair build: half/bin/newton
      stencil: half/bin/2d
      bin: standard
WARNING: Communication cutoff 1.42246 is shorter than a bond length based estimate of 1.425. This may lead to errors. (../comm.cpp:730)
Per MPI rank memory allocation (min/avg/max) = 4.126 | 4.126 | 4.127 Mbytes
Step Temp E_pair E_mol TotEng Press 
       0         0.45   0.40003481 2.2200223e-06   0.84966203   0.78952518 
      50   0.47411013   0.67721272  0.057404514    1.2083323    1.3375852 
     100         0.45   0.73046745  0.054836584     1.234929    2.3196516 
     150   0.67521742   0.72402001  0.043490075    1.4421648    2.8744416 
     200         0.45   0.78481891  0.076931503    1.3113754    3.0412388 
     250   0.66479018   0.69790602  0.081075564    1.4432178    3.6917024 
     300         0.45   0.76820218  0.066727591    1.2845548    3.7861054 
     350   0.67619136     0.625715  0.072722727    1.3740656    4.2861621 
     400         0.45   0.68527759  0.090724527    1.2256271    4.4725214 
     450   0.56702844   0.64402767  0.080555563    1.2911391    4.7402211 
     500         0.45   0.64883009  0.078376672    1.1768318    4.7919294 
     550     0.564664   0.58260368  0.080779475    1.2275766    4.9855705 
     600         0.45   0.58193041  0.088386617     1.119942     5.131481 
     650   0.52110993    0.5415273  0.097683746    1.1598867    5.2500294 
     700         0.45   0.50856787  0.088471208    1.0466641    5.2550165 
     750   0.51510855   0.47441291  0.089429375    1.0785216     5.375763 
     800         0.45   0.49926696  0.085958476    1.0348504    5.4665914 
     850   0.50688494   0.46614429  0.088962292    1.0615691     5.556932 
     900         0.45   0.47785593   0.10150857    1.0289895    5.7765975 
     950   0.49590559   0.46050477  0.096404887     1.052402    5.8649245 
    1000         0.45   0.47691182   0.08808163    1.0146185    6.0177568 
Loop time of 0.052228 on 4 procs for 1000 steps with 1200 atoms

Performance: 8271431.030 tau/day, 19146.831 timesteps/s
98.4% CPU use with 4 MPI tasks x no OpenMP threads

MPI task timing breakdown:
Section |  min time  |  avg time  |  max time  |%varavg| %total
---------------------------------------------------------------
Pair    | 0.027151   | 0.027725   | 0.028635   |   0.3 | 53.08
Bond    | 0.0016654  | 0.0017546  | 0.0018555  |   0.2 |  3.36
Neigh   | 0.0058073  | 0.005824   | 0.0058432  |   0.0 | 11.15
Comm    | 0.0070736  | 0.0081476  | 0.0087137  |   0.7 | 15.60
Output  | 0.00021602 | 0.00022128 | 0.00023653 |   0.0 |  0.42
Modify  | 0.0063415  | 0.0064447  | 0.0065869  |   0.1 | 12.34
Other   |            | 0.002111   |            |       |  4.04

Nlocal:        300.000 ave         305 max         292 min
Histogram: 1 0 0 0 0 0 1 0 1 1
Nghost:        100.250 ave         108 max          93 min
Histogram: 1 0 1 0 0 0 1 0 0 1
Neighs:        784.000 ave         815 max         739 min
Histogram: 1 0 0 0 0 0 1 1 0 1

Total # of neighbors = 3136
Ave neighs/atom = 2.6133333
Ave special neighs/atom = 0.50000000
Neighbor list builds = 92
Dangerous builds = 0

unfix		3

# Main run

pair_style	lj/cut 2.5

# solvent/head - full-size and long-range

pair_coeff	1 1 0.2 1.0 2.5
pair_coeff	2 2 0.2 1.0 2.5
pair_coeff	1 2 0.2 1.0 2.5

# tail/tail - size-averaged and long-range

pair_coeff	3 3 0.2 0.75 2.5
pair_coeff	4 4 0.2 0.50 2.5
pair_coeff	3 4 0.2 0.67 2.5

# solvent/tail - full-size and repulsive

pair_coeff	1 3 0.2 1.0 1.12246
pair_coeff	1 4 0.2 1.0 1.12246

# head/tail - size-averaged and repulsive

pair_coeff	2 3 0.2 0.88 1.12246
pair_coeff	2 4 0.2 0.75 1.12246

thermo		50

dump		1 all atom 200 dump.micelle

#dump		2 all image 2000 image.*.jpg type type zoom 1.6
#dump_modify	2 pad 5 adiam 1 0.5 adiam 2 1.5 adiam 3 1.0 adiam 4 0.75

#dump		3 all movie 2000 movie.mpg type type zoom 1.6
#dump_modify	3 pad 5 adiam 1 0.5 adiam 2 1.5 adiam 3 1.0 adiam 4 0.75

reset_timestep	0
run		100000
Neighbor list info ...
  update every 1 steps, delay 5 steps, check yes
  max neighbors/atom: 2000, page size: 100000
  master list distance cutoff = 2.8
  ghost atom cutoff = 2.8
  binsize = 1.4, bins = 26 26 1
  1 neighbor lists, perpetual/occasional/extra = 1 0 0
  (1) pair lj/cut, perpetual
      attributes: half, newton on
      pair build: half/bin/newton
      stencil: half/bin/2d
      bin: standard
Per MPI rank memory allocation (min/avg/max) = 5.136 | 5.136 | 5.137 Mbytes
Step Temp E_pair E_mol TotEng Press 
       0         0.45  -0.34112326   0.08808163   0.19658337    1.3647331 
      50    0.3863455  -0.24823049  0.053966762   0.19175982    1.7648494 
     100         0.45  -0.23796704    0.0564651   0.26812306    2.1162065 
     150   0.42278227  -0.21799056   0.06375902   0.26819842    2.1718138 
     200   0.43876742  -0.23105505  0.056467772    0.2638145    2.1248761 
     250    0.4275757    -0.215411  0.053971436   0.26577982    2.1688344 
     300         0.45  -0.21908218  0.061306149   0.29184897    2.2588828 
     350   0.44383742  -0.20530667  0.054700314    0.2928612    2.2517649 
     400   0.44056605  -0.20572403  0.054455535   0.28893042     2.352789 
     450   0.44361945   -0.2189396  0.062278598   0.28658876    2.2347842 
     500   0.43202992  -0.20227959  0.057250308   0.28664061    2.3385428 
     550   0.45766309  -0.22897603  0.061552693   0.28985837    2.1868169 
     600   0.44114233  -0.21043591  0.064457116   0.29479591    2.2305027 
     650   0.44941292  -0.21623981   0.06024316   0.29304175    2.1980562 
     700    0.4407971  -0.20679152  0.059896661   0.29353491    2.2340545 
     750   0.45624481  -0.22087841  0.059026235   0.29401243    2.2337797 
     800   0.44054424  -0.21305572  0.065518666   0.29264007    2.2924741 
     850   0.45531057   -0.2143287  0.052025131   0.29262757    2.2115044 
     900   0.44900789  -0.21162743  0.058406262   0.29541255    2.2863676 
     950   0.45446547  -0.21729371  0.060018195   0.29681124    2.2148484 
    1000   0.44436531  -0.20608974   0.05816269   0.29606796    2.2631516 
    1050   0.44941981  -0.20982308  0.058844932   0.29806715    2.2618458 
    1100   0.44699705   -0.2083941  0.058089973   0.29632042    2.2585355 
    1150   0.45538704  -0.22137697   0.06295887   0.29658945    2.2319544 
    1200   0.44490432  -0.20632685  0.056058556   0.29426527    2.2620333 
    1250   0.45008864  -0.20607011  0.052767282   0.29641074    2.2462013 
    1300   0.46739125   -0.2325606  0.059683369   0.29412453     2.148912 
    1350   0.45759829  -0.21644435  0.057747371   0.29851998    2.1411684 
    1400   0.45181405  -0.21380083  0.059066613   0.29670333    2.2289024 
    1450   0.45500029    -0.217478  0.059731973   0.29687509    2.1872705 
    1500   0.46092848  -0.22241967  0.056094332   0.29421904    2.1913108 
    1550   0.45537909  -0.21117238  0.052535061   0.29636229    2.2205666 
    1600   0.44896695  -0.21072716  0.060366323   0.29823197    2.2525758 
    1650   0.45612779  -0.21959087  0.061468332   0.29762514    2.0920345 
    1700   0.44620845  -0.21638944   0.06541861   0.29486578    2.1979326 
    1750   0.45516556  -0.22398746  0.065017725   0.29581652    2.1437782 
    1800   0.46262989  -0.22487645   0.05826939    0.2956373    2.2307802 
    1850   0.46270334  -0.22171234  0.058366774   0.29897218    2.1135498 
    1900   0.45494064  -0.21974111  0.062924263   0.29774468    2.1656279 
    1950   0.46282043  -0.21068725  0.051195055   0.30294255    2.2174859 
    2000   0.45134947  -0.21326626  0.061833959   0.29954104    2.2432364 
    2050   0.46193373  -0.21510097  0.054383458   0.30083127    2.1551929 
    2100    0.4651008   -0.2190964  0.051475998   0.29709282    2.2330682 
    2150   0.46695463  -0.21798033  0.052469678   0.30105485    2.1935532 
    2200   0.46237666   -0.2132329   0.05411518   0.30287363    2.1932521 
    2250   0.45289315  -0.21137765  0.057788563   0.29892666    2.2475045 
    2300   0.44436089  -0.20154844  0.059740069   0.30218221    2.2888723 
    2350   0.46097697  -0.22376001  0.061834561   0.29866738    2.1345569 
    2400   0.44032558  -0.20664624  0.066206701    0.2995191    2.2647583 
    2450   0.46018633  -0.22691014  0.066283775   0.29917648    2.1225991 
    2500   0.45455989  -0.21949867  0.068584224   0.30326665    2.1214103 
    2550   0.45099447  -0.21644261   0.06896151   0.30313754    2.1806391 
    2600   0.45660909  -0.20689832  0.056116413   0.30544668    2.2041876 
    2650   0.47051953  -0.22772785  0.057586189   0.29998577    2.1181851 
    2700   0.43896651   -0.2045837  0.065374451   0.29939146    2.2869947 
    2750   0.44895515  -0.21194019  0.062422901   0.29906373    2.2142504 
    2800   0.46605328  -0.21722278  0.052846747   0.30128886    2.1703552 
    2850   0.45929693  -0.22112308  0.057924853   0.29571596    2.1966439 
    2900   0.44943697  -0.21059704  0.061079262   0.29954466    2.2676497 
    2950   0.47942413  -0.22843363   0.05154506   0.30213604    2.1142324 
    3000   0.45549146   -0.2128824  0.059821649   0.30205113    2.1680616 
    3050   0.47591633  -0.23415595  0.060911882   0.30227567     2.100962 
    3100   0.44901946  -0.21204815  0.065499455   0.30209658    2.1578294 
    3150   0.47467599  -0.23026618  0.057102651    0.3011169    2.1191245 
    3200   0.46363566  -0.21482169  0.055152886    0.3035805    2.1929088 
    3250   0.46648277  -0.22840736  0.064278996   0.30196566    2.1261247 
    3300         0.45  -0.23402816  0.059515055    0.2751119    2.0162708 
    3350   0.44365619   -0.2249874  0.058688948   0.27698803     2.115819 
    3400   0.46760529  -0.24038068  0.052665216   0.27950016    1.9603429 
    3450   0.45358886  -0.23904499  0.059217098   0.27338297    2.0452769 
    3500   0.45259524  -0.23620837  0.060534772   0.27654448    2.0577236 
    3550   0.44329642  -0.22305272  0.055981103   0.27585539    2.0792429 
    3600   0.45091963  -0.23188761   0.05625666   0.27491291    2.0452593 
    3650   0.45726573  -0.23645178  0.053568667   0.27400155    2.0138921 
    3700   0.44791791  -0.22753288  0.054584637    0.2745964    2.1271625 
    3750   0.44920818  -0.22723524  0.055229223   0.27682782    2.1376939 
    3800   0.45075827  -0.22950734   0.05594309   0.27681839    2.0453782 
    3850   0.42751089  -0.20919823  0.057488643   0.27544505    2.1931293 
    3900   0.44053131  -0.22092505  0.059347425   0.27858658     2.137412 
    3950   0.45372271  -0.23230698  0.057221307   0.27825894    2.0231567 
    4000   0.45192471  -0.24268047  0.067619193   0.27648683     2.033451 
    4050   0.44421152  -0.23480929  0.068056306   0.27708836    2.0619949 
    4100   0.45077326  -0.23533187   0.05873324   0.27379899    2.0254438 
    4150   0.44043758  -0.22955681  0.065617073   0.27613081    2.0882432 
    4200   0.45540951  -0.23884931  0.060865734   0.27704643    2.0060749 
    4250   0.44818235  -0.23034589  0.058383811   0.27584679     2.044412 
    4300   0.44946016  -0.23505868  0.060874702   0.27490163    2.1026079 
    4350   0.43667621  -0.21793259  0.055572253   0.27395197      2.16699 
    4400   0.44581341  -0.22600722  0.053645696   0.27308038    2.1121081 
    4450   0.45154527   -0.2282946  0.052490293   0.27536467    2.0664248 
    4500    0.4480374  -0.22458207  0.053697308   0.27677927     2.077034 
    4550   0.44592364  -0.22096573  0.051983397    0.2765697    2.1317483 
    4600   0.45707606   -0.2421397  0.060598496   0.27515396    2.0206923 
    4650     0.452513  -0.22925513  0.057507903   0.28038868    2.0046888 
    4700   0.44097526   -0.2244295  0.064088293   0.28026658    2.0842676 
    4750   0.44027968  -0.21660199  0.056018585   0.27932937    2.1196067 
    4800   0.43618588  -0.21912762  0.063521624    0.2802164    2.0915892 
    4850   0.45427698  -0.24014122  0.060455746   0.27421295    1.9965879 
    4900    0.4639396  -0.24171285  0.054606657    0.2764468     2.015619 
    4950   0.45689417  -0.23971765   0.06193613    0.2787319    1.9502669 
    5000    0.4443941  -0.23134643  0.064878279   0.27755562    2.0470761 
    5050    0.4549195  -0.23497161  0.060910549   0.28047934    1.9620922 
    5100   0.45242872  -0.23825666  0.065043233   0.27883827    1.9998234 
    5150   0.45387211  -0.23179363  0.059635306   0.28133556    1.9983933 
    5200   0.43531634  -0.21647341  0.061871281   0.28035144    2.1619189 
    5250   0.44481554  -0.22132599  0.056459808   0.27957868    2.1391111 
    5300   0.44309251  -0.22017272  0.058484511   0.28103506    2.1362267 
    5350   0.44422716  -0.22774226  0.059544286   0.27565899     2.136611 
    5400   0.44083924  -0.22032168  0.060188413   0.28033861    2.0701116 
    5450   0.43815655  -0.22557834  0.065902226    0.2781153     2.102229 
    5500   0.44434348  -0.23789583  0.070299097   0.27637646    1.9813297 
    5550    0.4474922   -0.2385589  0.069110661   0.27767105    1.9878248 
    5600   0.44671543  -0.23577146  0.065552963   0.27612467    1.9936192 
    5650   0.45328003  -0.23471433  0.058551702   0.27673967    2.0466387 
    5700   0.45368419  -0.24044648  0.062733361     0.275593    1.9428688 
    5750   0.45735973  -0.24061736  0.061529629   0.27789087    2.0326401 
    5800   0.45706569  -0.23634221  0.055490796   0.27583339    2.0486509 
    5850   0.45036401  -0.22547325  0.059134765   0.28365022    2.0785301 
    5900   0.44823956  -0.21649386  0.052945771   0.28431793    2.1677843 
    5950   0.45268078  -0.22482938  0.055660833   0.28313499    2.0917184 
    6000   0.45960874  -0.23405008  0.056492408   0.28166806    1.9785243 
    6050   0.43792925  -0.21990168  0.064971418   0.28263405    2.1333191 
    6100   0.45875309  -0.23370828  0.057285162   0.28194768    2.0192305 
    6150   0.44775256  -0.23820258  0.071190735   0.28036759    1.9719529 
    6200   0.44774883  -0.23823116  0.068009317   0.27715386    1.9932982 
    6250   0.44807303  -0.23070277   0.06251065   0.27950751    2.0420797 
    6300   0.45128707  -0.23362612   0.06251584   0.27980072    1.9811253 
    6350    0.4372734  -0.21675954  0.059490412   0.27963988    2.1940585 
    6400   0.44051652  -0.22807035  0.066154941   0.27823401    2.0484245 
    6450   0.46478614  -0.23797422  0.056493147   0.28291775    1.9721019 
    6500   0.43335829  -0.21658578  0.062305063   0.27871644    2.1286746 
    6550    0.4468904  -0.23580726  0.069260544   0.27997127    1.9862622 
    6600         0.45  -0.24629428  0.056069843   0.25940056    1.9448078 
    6650   0.43126519  -0.22721383  0.057048554   0.26074053    2.0143742 
    6700   0.44815828  -0.24935897  0.062193817   0.26061966    1.9335132 
    6750   0.43928423  -0.23573082  0.055269002   0.25845634    1.9847467 
    6800   0.44085791  -0.23829287   0.05714281   0.25934047    1.9476194 
    6850   0.44228615  -0.24037695  0.058309106   0.25984973    1.9915646 
    6900    0.4552795  -0.24628464  0.052173953   0.26078941    1.8792397 
    6950   0.44147964  -0.23848396   0.05832127   0.26094905    1.9598873 
    7000         0.45  -0.23517063  0.070852669   0.28530704    2.0682063 
    7050   0.45017356  -0.23160708   0.06381459   0.28200592    2.0407792 
    7100   0.45574656  -0.23366437  0.061660196    0.2833626    2.0302422 
    7150   0.45748135  -0.22970404  0.053991675   0.28138776    2.0673746 
    7200   0.46104777  -0.23354748  0.053101789   0.28021787    2.0435983 
    7250   0.45642025  -0.22454403  0.051806802   0.28330267    2.0889799 
    7300         0.45  -0.24532112  0.054811126   0.25911501    1.9402404 
    7350   0.45001612  -0.25119508  0.062960003   0.26140602    1.9350635 
    7400   0.44590041  -0.24267486  0.058184533    0.2610385    1.9311754 
    7450   0.43779244  -0.22544896  0.050448173   0.26242683    2.0728754 
    7500   0.44692408   -0.2419151  0.055657129   0.26029367    1.8990104 
    7550   0.42540892  -0.22831017  0.065055655    0.2617999    2.0623564 
    7600   0.43361415  -0.23105144  0.061068298   0.26326966    2.0561197 
    7650   0.43949764  -0.23926773  0.060654846   0.26051851     1.875346 
    7700   0.45489887  -0.25036317   0.05662231   0.26077893    1.9247892 
    7750   0.44521976  -0.23459185  0.053119484   0.26337638    2.0527626 
    7800   0.43424528  -0.22985845  0.057567089   0.26159204    2.0037836 
    7850   0.44659386  -0.24494081  0.060245392   0.26152628    1.9851534 
    7900   0.46113624  -0.25077519  0.053192511   0.26316928    1.8898286 
    7950   0.43727158  -0.23861079  0.064972126   0.26326852    1.9658395 
    8000   0.44775382  -0.24289366  0.054475798   0.25896284    1.9428274 
    8050   0.43871799  -0.24317606  0.065672484   0.26084882    1.9717212 
    8100   0.44577131  -0.24599389  0.062181548   0.26158749    1.9272424 
    8150   0.44997548  -0.24520574  0.058120743   0.26251551    1.8975977 
    8200   0.44469263  -0.24023708  0.059976765   0.26406173    1.9506144 
    8250   0.44165829   -0.2393519   0.06084849   0.26278683     1.927691 
    8300         0.45  -0.23390866  0.069826611   0.28554295    2.0094232 
    8350    0.4570783  -0.23440267  0.059363488   0.28165822    1.9701975 
    8400   0.46580531  -0.23950576  0.055549238   0.28146062    2.0367746 
    8450   0.46092345  -0.23767143  0.060033111   0.28290103    2.0183133 
    8500   0.45623369  -0.23503311  0.064318245   0.28513863    1.9805467 
    8550   0.46205902  -0.23734099  0.059427913   0.28376089    1.9888683 
    8600   0.45225314  -0.23219693  0.066391339   0.28607067    2.0725548 
    8650   0.45094121  -0.22216708  0.057189239   0.28558758    2.0721702 
    8700    0.4638254  -0.24426001  0.065351815   0.28453068    1.9512631 
    8750   0.45574883   -0.2347528  0.063561449   0.28417769    1.9906536 
    8800   0.45716392  -0.23838195  0.064028829   0.28242983    2.0875695 
    8850   0.45380439  -0.22050453  0.049932077   0.28285376    2.0929146 
    8900   0.45801483  -0.23138054   0.05227976   0.27853237    2.0909832 
    8950   0.44688817  -0.23165742  0.067925224   0.28278357    2.0307237 
    9000   0.45846113  -0.24571601  0.068868564   0.28123164    1.9395661 
    9050   0.47014816  -0.24379539  0.056426896   0.28238788    1.9679253 
    9100   0.46308046  -0.23822778   0.05550107   0.27996785    1.9915518 
    9150   0.45907003  -0.22693202   0.05280187   0.28455732    2.0488618 
    9200   0.46324066  -0.23368615  0.052706519     0.281875      2.05727 
    9250   0.45330618  -0.22872866  0.060596533   0.28479631    2.0180918 
    9300   0.44653489  -0.22304693  0.059501767   0.28261761    2.1041705 
    9350   0.45274274   -0.2287057  0.057404601   0.28106436    2.0356896 
    9400    0.4683184  -0.24339761   0.05438331   0.27891383    1.9949555 
    9450   0.44891373  -0.22813522    0.0571472   0.27755161    2.0874643 
    9500   0.46023784  -0.24164149  0.060928552   0.27914137    1.9624959 
    9550    0.4607451  -0.23718137  0.061742314   0.28492209    1.9777559 
    9600   0.46464023  -0.23857159  0.057878928   0.28356037    1.9930828 
    9650   0.45749446  -0.23786956  0.064457276   0.28370092    2.0169896 
    9700   0.44984577  -0.23665422  0.071661298   0.28447797    1.9539573 
    9750    0.4366618  -0.22330096  0.070427508   0.28342446    2.0605007 
    9800   0.46576185  -0.24858301  0.064798626   0.28158933    1.9247095 
    9850   0.44605712  -0.22064696  0.057531297   0.28256974    2.0915392 
    9900   0.45086097  -0.22578565  0.060503357   0.28520296    2.0815441 
    9950   0.46349503  -0.23712603  0.052298908   0.27828167    2.0259864 
   10000    0.4357389  -0.21811931  0.064934152   0.28219063    2.0667722 
   10050   0.46713892  -0.24125116  0.056075073   0.28157355    1.9314309 
   10100    0.4529933  -0.22937538  0.060984696   0.28422512    2.0392896 
   10150   0.47154346  -0.24644844  0.056473505   0.28117558    1.9424143 
   10200   0.44950012  -0.22425197  0.057803153   0.28267672    2.0748079 
   10250   0.45459557  -0.24358631  0.070367849   0.28099828    2.0059542 
   10300   0.44900924  -0.23051528  0.062469232   0.28058902    2.0975702 
   10350   0.45538097   -0.2286726  0.055223266   0.28155215    2.0165914 
   10400   0.45566132  -0.22882492  0.056384777   0.28284146    2.0501742 
   10450    0.4655002  -0.23375591   0.05261624   0.28397261     2.003283 
   10500         0.45  -0.24342253  0.051421578   0.25762405    1.9368704 
   10550   0.44144618  -0.23785804  0.057013089   0.26023337    2.0235011 
   10600    0.4429682  -0.23507186   0.05633859   0.26386579    1.9650338 
   10650   0.43445973  -0.24194536  0.068768257   0.26092057    1.9134804 
   10700   0.43028174  -0.22800233   0.05840932   0.26033016    2.0138046 
   10750   0.45427081   -0.2463395  0.053863835   0.26141659    1.8937399 
   10800   0.45976283  -0.25667549  0.058282644   0.26098685    1.8382247 
   10850   0.44328855  -0.24633761    0.0656291   0.26221063    1.8310449 
   10900   0.44583263  -0.24673644   0.06163796   0.26036262    1.9015057 
   10950   0.43844141  -0.23518531  0.057469777   0.26036051    1.9709487 
   11000   0.45121081  -0.24956759  0.060805085   0.26207229    1.9047499 
   11050   0.43644955  -0.23549847  0.062396372   0.26298374    1.9420297 
   11100   0.44720318  -0.23857495  0.053042982   0.26129854     1.961693 
   11150   0.44636869  -0.24485805  0.057628711   0.25876737    1.8785233 
   11200    0.4519074  -0.24696818  0.055297464    0.2598601    1.9518236 
   11250   0.44948534  -0.24040765   0.04967163   0.25837475     1.977445 
   11300   0.43639826  -0.23253296   0.05779124   0.26129287    1.9806112 
   11350   0.44226941  -0.24457419  0.063865836    0.2611925    1.9293955 
   11400   0.44261926  -0.23301274  0.052721051   0.26195872    1.9897128 
   11450   0.43702754  -0.23535703  0.058492307   0.25979862    1.9901767 
   11500   0.45259452  -0.25143015  0.059194805   0.25998202     1.903617 
   11550   0.44228621  -0.23678352  0.054563499   0.25969762    1.9298995 
   11600   0.45473576  -0.24765648  0.055795975   0.26249632     1.920993 
   11650   0.43762738  -0.23818293  0.062610153   0.26168991    1.9718868 
   11700   0.45187992  -0.24734573  0.055119058   0.25927668    1.9098492 
   11750   0.43325307  -0.23633256  0.062565645    0.2591251    1.9483197 
   11800   0.44679408  -0.23757675  0.053583998   0.26242899    1.9633428 
   11850   0.44358025  -0.24696958  0.062336701   0.25857772    1.9119346 
   11900   0.45439858  -0.24924136  0.056288339    0.2610669    1.8985535 
   11950   0.46072004  -0.25019811  0.051135538   0.26127354    1.8600914 
   12000   0.45994928  -0.25386675  0.055532246   0.26123148    1.8770746 
   12050   0.45411353  -0.25131711  0.060168936   0.26258692    1.9024345 
   12100   0.44989846  -0.24185112  0.055071364   0.26274379    1.9204402 
   12150   0.44986645  -0.24682668  0.058332176   0.26099705     1.889522 
   12200   0.45001323  -0.24450032  0.055905596   0.26104349    1.9620428 
   12250   0.43307136  -0.23565643  0.062194137   0.25924817    1.9791943 
   12300     0.446285   -0.2453341  0.058513673   0.25909267    1.9258925 
   12350    0.4419459   -0.2364858   0.05534394   0.26043575    1.9751446 
   12400   0.45224494  -0.24424385  0.054705683    0.2623299    1.9507365 
   12450    0.4414981  -0.23873031  0.057098006   0.25949788    1.9240872 
   12500   0.44952302  -0.24110412  0.053158894    0.2612032    1.9222305 
   12550   0.43987001  -0.23612413  0.058385281    0.2617646    1.9672031 
   12600   0.45358312  -0.25456988  0.058885085   0.25752035    1.8530909 
   12650   0.45571583  -0.25598701  0.060863886   0.26021295     1.880929 
   12700   0.44001674  -0.24460618  0.064919302   0.25996318    1.8968307 
   12750   0.45231307  -0.25841319  0.066281609   0.25980455    1.8379311 
   12800   0.45540933  -0.25034739  0.055119662   0.25980209    1.8725276 
   12850   0.44966297  -0.24472537  0.057050846   0.26161373    1.8894989 
   12900   0.43693658  -0.23378799  0.057595891   0.26038037     1.977976 
   12950   0.43563855  -0.23707464  0.060737935   0.25893881    1.9975002 
   13000   0.43370304   -0.2356068  0.059419396   0.25715422    2.0293888 
   13050   0.43958917  -0.24524818  0.067532288   0.26150696     1.936553 
   13100    0.4449417  -0.23638052   0.05371264   0.26190304    1.9277803 
   13150   0.43954091  -0.24231179  0.063473611   0.26033645    1.9990537 
   13200   0.43704454   -0.2408656  0.064639568    0.2604543    1.9151163 
   13250   0.45413281  -0.25559182  0.059545197   0.25770775    1.8621599 
   13300         0.45  -0.23795497  0.068368653   0.28003868    1.9995203 
   13350   0.45963263  -0.23887862   0.06235267   0.28272365    1.9718863 
   13400   0.45282943  -0.22345029  0.054281871   0.28328366    2.0909737 
   13450   0.45156386  -0.23213948   0.06267061    0.2817187    2.0306821 
   13500   0.45799754  -0.24663427  0.070329006   0.28131061    1.9381025 
   13550   0.45883977  -0.24069862   0.06419997   0.28195875    1.9803586 
   13600   0.46238916   -0.2369066  0.058467763     0.283565    1.9568556 
   13650   0.45347802  -0.22787333   0.05815896   0.28338575    2.0258399 
   13700   0.46282951  -0.23955014  0.063658745   0.28655242    1.9578903 
   13750   0.45916877  -0.23724047  0.060382475   0.28192813    2.0034083 
   13800   0.45263047  -0.22736429  0.054304623   0.27919362    1.9846141 
   13850   0.45778426  -0.23741968  0.061875592   0.28185869    2.0989373 
   13900   0.45130558  -0.23012263  0.060438416   0.28124528    1.9980582 
   13950   0.46546412  -0.23786932  0.055334403   0.28254131    1.9769911 
   14000   0.46892655  -0.24135391  0.057219781   0.28440165    1.9359315 
   14050   0.45026449  -0.22983519   0.06368712    0.2837412    2.0610341 
   14100    0.4659066  -0.24636551  0.063490822   0.28264365    1.9537012 
   14150    0.4623642  -0.23451834   0.05254361   0.28000417    2.0174434 
   14200   0.46176741  -0.23604015  0.055457655   0.28080011    1.9796839 
   14250   0.44909209  -0.22600773  0.059406424   0.28211655     1.960411 
   14300   0.43931227  -0.21851657  0.059416621   0.27984622    2.1419844 
   14350   0.46011601  -0.24393682  0.063413126   0.27920888    1.9953388 
   14400   0.46940217  -0.24777847  0.059838202   0.28107073     1.974626 
   14450   0.46869107  -0.24488455  0.054002705   0.27741865    1.9195179 
   14500   0.45444509  -0.23172374  0.059201422   0.28154406     2.094793 
   14550   0.46814126  -0.24124669  0.054160656   0.28066511    1.9629832 
   14600   0.46269267  -0.23710901   0.05708549   0.28228357    1.9966505 
   14650   0.46802866  -0.25543843  0.067904954   0.28010515    1.8889421 
   14700   0.45329545  -0.22930186  0.056579503   0.28019535    1.9744824 
   14750   0.46424583  -0.24211306  0.061566141   0.28331204    1.9774066 
   14800   0.45838878  -0.23435586  0.058222585   0.28187352    1.9986498 
   14850   0.45470102  -0.22988119  0.057134007   0.28157492    1.9890131 
   14900    0.4523218  -0.23657328  0.065124241   0.28049582    2.0115023 
   14950   0.46940327  -0.24078343  0.053303946   0.28153262    1.9514594 
   15000         0.45  -0.24698801  0.055977834   0.25861483    1.9381126 
   15050   0.45031755  -0.24068173  0.049706594   0.25896715    1.9261001 
   15100   0.45610023  -0.25109167  0.052275274   0.25690375    1.8822315 
   15150   0.44924788  -0.25360084  0.061067636    0.2563403    1.8812088 
   15200   0.43745989  -0.24231912  0.060816605   0.25559282    1.9634386 
   15250   0.43357153  -0.23533434  0.059212386   0.25708827    2.0224944 
   15300   0.44288069  -0.24637594  0.061250071   0.25738576    1.8543332 
   15350   0.44767356  -0.24605203  0.055840264   0.25708874    1.9058088 
   15400   0.43985205  -0.24225671  0.059888909   0.25711771    1.9030251 
   15450   0.45366948   -0.2566042  0.061581936   0.25826916    1.8201244 
   15500   0.44767481  -0.24571022  0.055784383   0.25737591    1.8889899 
   15550   0.43754061  -0.24288588  0.064101662   0.25839177    1.9388424 
   15600   0.43593628  -0.23649964   0.05673071   0.25580407    2.0165296 
   15650   0.43148733  -0.23248462  0.059348933   0.25799207    1.9748036 
   15700   0.44705958  -0.24686845  0.059150687   0.25896927    1.8901143 
   15750   0.43860186  -0.23578692  0.054037481   0.25648692     2.008877 
   15800   0.45257701  -0.25523708  0.061875142   0.25883792    1.8795819 
   15850   0.44849658   -0.2489689  0.059639507   0.25879344    1.9199939 
   15900   0.43841287  -0.22903574  0.048106037   0.25711782    2.0044493 
   15950   0.44040396  -0.23167529  0.048664112   0.25702578    2.0773821 
   16000   0.43590455  -0.23685565  0.062288865   0.26097451    1.9192552 
   16050   0.45209984  -0.24709222  0.053513542   0.25814441    1.9157378 
   16100   0.44454364  -0.24212588  0.054081664   0.25612898    1.8842779 
   16150   0.44018842  -0.23997152  0.056224519    0.2560746    1.9861962 
   16200   0.45154623    -0.254046  0.058525353   0.25564929    1.8454717 
   16250   0.44637525  -0.24305422  0.053681578   0.25663063    1.9520937 
   16300   0.44941491  -0.24616854  0.056138778   0.25901063    1.8869842 
   16350   0.43480417  -0.23421872  0.059504183    0.2597273    2.0168323 
   16400   0.45443994  -0.24688895  0.053373501   0.26054579    1.9006863 
   16450   0.44201038  -0.25013012  0.064953469   0.25646538     1.857159 
   16500   0.44317117  -0.24710038  0.062129253   0.25783073    1.9206263 
   16550   0.44694835  -0.24935718  0.061430889    0.2586496    1.8577941 
   16600   0.43928258  -0.23867627  0.057131553   0.25737179    1.9292594 
   16650   0.45005189  -0.24868809  0.058918167   0.25990692    1.9067842 
   16700   0.43138963  -0.24085744  0.067195254   0.25736796    1.9310115 
   16750   0.43297495  -0.24516488  0.068903016   0.25635228    1.9063492 
   16800   0.43835753  -0.24247799   0.06084163   0.25635587    1.9246666 
   16850   0.43799235  -0.24894624  0.065393881     0.254075    1.9213108 
   16900   0.43761652  -0.23878518   0.05689987   0.25536652    1.9444287 
   16950   0.44215387  -0.24472235  0.061886464   0.25894953    1.9104343 
   17000   0.43930044  -0.24296824  0.059291599   0.25525771    1.9546911 
   17050   0.44580655  -0.24213866  0.052978654   0.25627503    1.9466451 
   17100   0.43815675  -0.23945223  0.059435026   0.25777441    1.9859861 
   17150   0.43465894  -0.23807278  0.061089326   0.25731327    1.9363228 
   17200   0.43117758  -0.24125496  0.063347022   0.25291033    1.9576754 
   17250   0.44256729   -0.2422511  0.054061215    0.2540086    1.9810356 
   17300   0.44796907  -0.24692213  0.052574675   0.25324831    1.8603315 
   17350   0.44348031  -0.24484875  0.057164012   0.25542601    1.9641225 
   17400   0.43816976   -0.2445587  0.061383071   0.25462899    1.9377279 
   17450   0.44367619    -0.247879  0.058697636    0.2541251    1.9282646 
   17500   0.44499116  -0.24282159   0.05253881   0.25433756    1.9007486 
   17550   0.44330184  -0.23814778  0.053342283   0.25812692    1.9470985 
   17600         0.45  -0.23607366  0.063887391   0.27743873    2.0140018 
   17650   0.45218151  -0.23419499  0.058335327   0.27594503    2.0145683 
   17700   0.45788426  -0.24416879  0.061368703    0.2747026    1.9858147 
   17750    0.4498091  -0.23202454  0.062802168   0.28021188    1.9723419 
   17800   0.44868005  -0.23020765  0.061492591   0.27959109     2.067692 
   17850   0.45588696   -0.2369006  0.059785455    0.2783919    1.9755195 
   17900   0.46105093  -0.23945274  0.060150471   0.28136445    1.9529478 
   17950   0.46008238   -0.2399891  0.058577475   0.27828735    2.0002598 
   18000   0.45474367  -0.24129277  0.063460889   0.27653284    2.0298074 
   18050   0.46016569  -0.24926135  0.067185028   0.27770589    1.9268243 
   18100   0.45307074  -0.23918351  0.063525076   0.27703474    1.9812056 
   18150   0.44577831   -0.2312532  0.062338605   0.27649223    1.9969481 
   18200   0.45925002  -0.24014868  0.059762742   0.27848137     1.943063 
   18250   0.45595495  -0.23200772  0.052703219   0.27627049    2.0800443 
   18300   0.45609851  -0.24464892  0.065569346   0.27663886    1.9287074 
   18350   0.46196449  -0.24537536  0.064029794   0.28023395    1.9089738 
   18400   0.45746981  -0.23369807  0.054106315   0.27749682    2.0099374 
   18450   0.45207795  -0.23806455   0.06523954   0.27887622    1.9401012 
   18500   0.45490364  -0.24206678  0.066508661   0.27896643    1.9273398 
   18550   0.44919624  -0.23221449  0.063516128   0.28012354    2.0455275 
   18600   0.46541373  -0.24814624  0.062991466   0.27987111     1.932823 
   18650   0.45903699  -0.24064577  0.059529304     0.277538    1.9783635 
   18700   0.45566075  -0.23227943  0.056942974   0.27994458    2.0317461 
   18750   0.45214821  -0.23299518  0.059495561   0.27827181    1.9970208 
   18800   0.46376655  -0.25173858  0.067476413   0.27911791    1.9269505 
   18850   0.46200318   -0.2444574  0.061882798   0.27904357    1.9138325 
   18900   0.45330525  -0.23649895   0.06293119   0.27935973    2.0340679 
   18950   0.45891766  -0.24628346  0.066215114   0.27846689    1.9715616 
   19000   0.46665213  -0.24177011  0.053838409   0.27833155    1.9100911 
   19050   0.45628504  -0.24159917  0.065698663   0.28000429    1.9621435 
   19100   0.43834259  -0.22818515  0.069972593   0.27976474    2.0428422 
   19150   0.44976844  -0.22897361  0.059848701   0.28026873    2.0657067 
   19200    0.4564588  -0.23767974  0.063992774   0.28239145    1.9812957 
   19250   0.46832945  -0.25600364  0.066763494   0.27869903    1.8482742 
   19300   0.44633371  -0.23945607  0.069038687   0.27554438    2.0237571 
   19350   0.45649307   -0.2373225  0.060938922   0.27972908    1.9835166 
   19400   0.46499699  -0.23633786   0.05187917    0.2801508    1.9895133 
   19450   0.47227523  -0.24468712  0.051705204   0.27889974      1.92846 
   19500   0.45361842  -0.23187685   0.05601379   0.27737735    2.0464974 
   19550   0.44908946  -0.23550528  0.066062514   0.27927245    2.0580025 
   19600   0.46396853   -0.2435114  0.058213108   0.27828359    1.9501057 
   19650   0.44921816   -0.2312389  0.061352648   0.27895755    2.0755105 
   19700   0.45800813  -0.24675334  0.066417631   0.27729075    1.8982542 
   19750   0.46099079  -0.23147197   0.05162245   0.28075711     2.037142 
   19800   0.46457944  -0.23411639  0.052335484   0.28241139    1.9862895 
   19850   0.45317414  -0.23574187  0.063049402   0.28010403    2.0282482 
   19900   0.45941314  -0.23955097  0.058866982   0.27834631    2.0419227 
   19950     0.454021  -0.23030358  0.058160143   0.28149921    2.0090864 
   20000    0.4513261  -0.23271686   0.06496264   0.28319577    2.0142179 
   20050   0.46623393  -0.24383576  0.061604529   0.28361418     1.897915 
   20100   0.44771489  -0.22234919  0.054792654   0.27978525    2.0878949 
   20150   0.45050939  -0.22943431  0.058378363   0.27907802    1.9470782 
   20200   0.45343403  -0.23752203  0.062908365    0.2784425    1.9993305 
   20250    0.4623898  -0.24493046  0.061589715   0.27866374    1.9471655 
   20300   0.44603681  -0.23079046  0.063938385   0.27881304    2.0727667 
   20350   0.47323511  -0.24968672  0.053647701   0.27680173    1.9298364 
   20400   0.46668828  -0.24528641  0.056341036   0.27735401    1.9993482 
   20450   0.45734773  -0.23678528  0.058925604   0.27910693    1.9347256 
   20500   0.46914498  -0.24180494  0.052101976   0.27905106     2.003502 
   20550   0.47047907  -0.23779769  0.048947253   0.28123657    1.9636083 
   20600   0.45349936  -0.23073454  0.059692095     0.282079    2.0608762 
   20650   0.45283648   -0.2357736  0.064540276   0.28122579    1.9524157 
   20700   0.45195582  -0.23863641  0.068177543   0.28112032    1.9714946 
   20750   0.45713776  -0.23710054  0.062332334   0.28198861     1.968647 
   20800    0.4554382  -0.23972202  0.066730657    0.2820673    1.8988302 
   20850   0.45532375  -0.23509851  0.061532803    0.2813786     2.011703 
   20900   0.44972817  -0.22875899  0.059888182    0.2804826     2.061559 
   20950   0.46960889  -0.24764714  0.058124715   0.27969512    1.9141667 
   21000   0.45797044  -0.23098108  0.056658868   0.28326659    2.0042095 
   21050   0.45099557  -0.23026736  0.062638929   0.28299131    2.0439641 
   21100   0.46176824  -0.24279342  0.061898792    0.2804888    1.9384081 
   21150   0.44663737  -0.22794825  0.063933142   0.28225006    2.0860862 
   21200         0.45  -0.24876138  0.056577263   0.25744088    1.8241314 
   21250   0.45396328  -0.24951145   0.05256533   0.25663886    1.9043513 
   21300   0.45208866  -0.24927102  0.056503847   0.25894474    1.8596921 
   21350     0.440802  -0.24203164  0.060166837   0.25856986    1.9286429 
   21400   0.44279579  -0.24030926  0.056892004   0.25900954    1.8976245 
   21450   0.42700216   -0.2326486  0.063429686    0.2574274    2.0055813 
   21500   0.44795071   -0.2467208  0.055875655   0.25673228    1.8866647 
   21550   0.44464526  -0.23909153  0.052562856   0.25774604    1.9064849 
   21600   0.44843531  -0.23948344  0.048310281   0.25688846    1.9326672 
   21650   0.46194267  -0.25881905  0.054309338   0.25704801    1.7990582 
   21700   0.45219326  -0.24543569  0.050629679   0.25701042    1.9463576 
   21750   0.45060505  -0.25040961   0.05623714   0.25605708    1.9036807 
   21800    0.4354665  -0.23781786  0.059442159   0.25672791    1.8954133 
   21850   0.44373623  -0.24099431  0.054946592   0.25731873    1.9656565 
   21900   0.45105624  -0.24755841  0.055854786   0.25897673    1.8548628 
   21950   0.44348848  -0.23951115  0.054793145   0.25840089    1.8996731 
   22000   0.43954345  -0.24313522  0.060197082   0.25623903      1.93291 
   22050   0.44922383  -0.25051227  0.059349361   0.25768656    1.9004424 
   22100         0.45  -0.23852784  0.064114194   0.27521135    1.9836379 
   22150   0.45599553  -0.24777769  0.063885387   0.27172323    1.9318161 
   22200   0.44843266  -0.24115288  0.068242629   0.27514872    1.9852964 
   22250   0.46158464   -0.2472659   0.06261214   0.27654623    1.9113514 
   22300   0.45236648  -0.22924903  0.053704606   0.27644509    2.0552216 
   22350   0.45025321  -0.23213497  0.058163602   0.27590664    2.0110917 
   22400   0.44549597  -0.21870744  0.051448021    0.2778653    2.1141048 
   22450   0.45256718  -0.23270423  0.057329335   0.27681515    1.9924767 
   22500    0.4623536  -0.24438409  0.058034411   0.27561863    1.9613573 
   22550   0.45581862  -0.24079157  0.059740037   0.27438724    2.0150008 
   22600   0.45292305  -0.23503586  0.058410208   0.27591996    1.9537048 
   22650   0.44721042    -0.238143  0.066464031   0.27515878    2.0165487 
   22700   0.46688743  -0.24134346  0.051568884   0.27672378    1.9345175 
   22750   0.44391004  -0.23311673  0.064054114    0.2744775    2.0277363 
   22800   0.44952311  -0.23187615  0.056351028   0.27362338    2.0166909 
   22850   0.45723529  -0.23518386  0.051170347   0.27284074    1.9977147 
   22900   0.46534188  -0.25821315  0.068084226   0.27482517    1.8323464 
   22950   0.45063468  -0.24074782  0.064791903   0.27430323    1.9279564 
   23000   0.43973823  -0.22207978  0.059460405   0.27675241    2.0216126 
   23050   0.44062919  -0.22700302  0.061445099   0.27470408     2.039414 
   23100   0.45686471  -0.24363871  0.060939474   0.27378475    1.9804618 
   23150   0.45320794  -0.23847838  0.057985466   0.27233736    1.9554659 
   23200   0.45750742  -0.24420534  0.060774231   0.27369506    1.9511653 
   23250   0.45644514  -0.24189467  0.061535053   0.27570515    1.9318051 
   23300   0.45858534  -0.24510061  0.061043725    0.2741463    1.9695229 
   23350   0.45770276  -0.24406798  0.062290068   0.27554342    1.9020159 
   23400   0.45925872  -0.23959764  0.056278602   0.27555696    1.9380857 
   23450   0.46290055  -0.24458605  0.059555665   0.27748442    1.9430334 
   23500   0.45300239  -0.23309301  0.058843877   0.27837575    1.9856179 
   23550   0.46199789  -0.23602485  0.051428189   0.27701622    1.9981879 
   23600   0.45906953  -0.24015356  0.058853598   0.27738701     1.977047 
   23650   0.45992798  -0.24629199  0.059732165   0.27298488    1.9046228 
   23700    0.4580163  -0.24816161  0.067110466   0.27658348    1.9089306 
   23750   0.47933597  -0.26137024  0.059376164   0.27694244    1.8230492 
   23800   0.46914119  -0.24380479  0.050341086   0.27528653    1.9061985 
   23850   0.46419513  -0.24724056  0.057884464   0.27445221    1.9883903 
   23900   0.44570659   -0.2374666  0.067066461   0.27493503    1.9975135 
   23950    0.4497403  -0.23744692  0.065268526   0.27718712    1.9772302 
   24000   0.45920978  -0.24069723  0.054262222    0.2723921    1.9577583 
   24050   0.44222054  -0.24227466  0.073501023   0.27307838    1.9456283 
   24100   0.45439115  -0.24393194  0.066744536   0.27682508    1.9173449 
   24150   0.45064607  -0.23972254  0.066511243   0.27705923    1.9386999 
   24200   0.45215017  -0.23931384  0.062602105   0.27506164    2.0008998 
   24250   0.45695057  -0.23645046  0.055730898   0.27585022    1.9996619 
   24300   0.46935888  -0.25331838  0.058964577   0.27461394    1.8576599 
   24350   0.44244949  -0.22173556  0.054188276    0.2745335    2.1366844 
   24400   0.45197561  -0.23412419  0.057645415   0.27512019    2.0000677 
   24450   0.45291663  -0.23856147  0.058771511   0.27274924    2.0164527 
   24500   0.46480524  -0.24774587  0.057820482   0.27449251    1.9294871 
   24550   0.45999639  -0.24842569  0.062778257   0.27396563    1.9049457 
   24600   0.46076883  -0.24740107  0.064393549   0.27737734     1.965029 
   24650   0.46160886  -0.24361868  0.058180371   0.27578588    1.9271184 
   24700   0.45531751  -0.23699016  0.061522908   0.27947083    1.9134837 
   24750   0.46623685  -0.24982861  0.061392737   0.27741245    1.9349022 
   24800   0.46794992   -0.2427657  0.049985915   0.27478017    1.9309126 
   24850   0.45560762   -0.2451152  0.064909692   0.27502243    1.9601967 
   24900   0.46138429  -0.25157367  0.062262202   0.27168833    1.9291432 
   24950    0.4560895  -0.24661969  0.066739947   0.27582968    1.9351781 
   25000   0.45692775  -0.23832479  0.058640761   0.27686295    1.9257203 
   25050   0.45744394  -0.23933793  0.057515433   0.27524023    1.9788233 
   25100   0.45591324  -0.24157023  0.063204012   0.27716709    1.9409569 
   25150   0.45572268  -0.24684142  0.068982973   0.27748447    1.8861693 
   25200         0.45   -0.2516897  0.051498245   0.24943354     1.876594 
   25250   0.42995066  -0.23995547   0.06073092   0.25036781    1.9488074 
   25300   0.43379329   -0.2394411   0.05533982   0.24933052    1.9491478 
   25350   0.43602177   -0.2526166  0.063754725   0.24679655    1.8775981 
   25400   0.43065662  -0.24361245  0.060724358   0.24740965    1.8595636 
   25450   0.43949879  -0.24631122  0.055089863   0.24791118    1.9398063 
   25500         0.45   -0.2384995  0.058531665   0.26965716    1.9545127 
   25550   0.44874691  -0.23902799   0.05881855   0.26816351    1.9970155 
   25600    0.4544515  -0.23946209  0.052314893   0.26692559    2.0020118 
   25650    0.4282991  -0.21471051  0.054397054   0.26762873    2.1002659 
   25700   0.45999959  -0.24270724  0.051222117   0.26813113    1.9491929 
   25750   0.45392008   -0.2433592  0.060076487    0.2702591    1.9329452 
   25800   0.44906182  -0.24277756   0.06325035   0.26916039    1.9695979 
   25850   0.44841804  -0.23939919  0.059719534    0.2683647    1.9794214 
   25900   0.44665078  -0.23445754  0.058645313   0.27046634    1.9899391 
   25950   0.44801094  -0.23604017  0.061452857   0.27305029    1.9636636 
   26000   0.44182344  -0.22473421  0.053320377   0.27004142    2.0699781 
   26050   0.45512713   -0.2457443  0.056778125   0.26578169    1.9580705 
   26100   0.46309094  -0.24732803  0.054828325   0.27020532    1.9011065 
   26150   0.46135257  -0.24575814  0.053517456   0.26872742    1.9217501 
   26200   0.46457293  -0.24991241  0.055704404   0.26997777    1.8523252 
   26250   0.45131887  -0.24439867  0.063899276   0.27044337    1.9703821 
   26300   0.43775751  -0.23163382  0.067153271   0.27291217    2.0162566 
   26350    0.4469142  -0.23802995  0.063181054   0.27169288    1.9238027 
   26400   0.44963585  -0.23169834  0.054858626   0.27242144    2.0405786 
   26450   0.45737753   -0.2387058  0.052857509   0.27114809    1.9829794 
   26500   0.45794046  -0.24352766  0.055517983   0.26954917    1.9519988 
   26550    0.4438075  -0.23044893   0.05726573   0.27025446    2.0117788 
   26600   0.44951061  -0.24605985  0.067732765   0.27080893    1.8853315 
   26650   0.46045091  -0.24954345  0.060968216   0.27149197    1.8756677 
   26700    0.4505436  -0.23352985  0.055658737   0.27229703    1.9829862 
   26750   0.46572242  -0.25142558  0.055710421   0.26961916    1.8842033 
   26800   0.45569668  -0.24200569  0.054685204   0.26799644    1.9474736 
   26850   0.45600688   -0.2476535  0.062863762   0.27083714    1.9034459 
   26900   0.45363341  -0.25427033  0.070934554   0.26991961    1.8082558 
   26950   0.44169392  -0.23297145   0.05903258   0.26738697    2.0261585 
   27000   0.44772831  -0.24362356   0.06684512   0.27057677    2.0018274 
   27050   0.45220885  -0.23465346  0.054484067   0.27166262     1.950005 
   27100    0.4548237   -0.2460013  0.061258262   0.26970164    1.9216489 
   27150   0.46122701    -0.241792  0.051240872   0.27029152    1.9549937 
   27200   0.45438015  -0.24208255  0.058407744   0.27032669    1.9416995 
   27250   0.46140161  -0.24227203  0.049721369   0.26846645    1.9210399 
   27300   0.45962713  -0.24759805  0.056629276   0.26827534    1.9294322 
   27350   0.44372826  -0.23444159  0.059935258   0.26885215    1.9869111 
   27400    0.4508882  -0.23567401  0.054086789   0.26892524    1.9836867 
   27450   0.44443038   -0.2436509  0.066493127   0.26690226    1.9246211 
   27500   0.45477679  -0.25227092  0.064074815   0.26620171    1.9013111 
   27550   0.45277835  -0.24385171  0.058471081   0.26702041    1.9356618 
   27600   0.45381756  -0.23919438  0.053886912   0.26813191    1.9527327 
   27650    0.4540592  -0.24137637  0.055635849    0.2679403    1.9928479 
   27700   0.44584404  -0.23866619  0.061523651   0.26832997    2.0301788 
   27750   0.46850503  -0.24900618  0.048330112   0.26743854    1.9092906 
   27800   0.44506466  -0.23169467  0.054516101    0.2675152     2.043138 
   27850   0.44301803  -0.23299045  0.060008723   0.26966712    2.0290203 
   27900   0.46111453    -0.241531  0.051011349   0.27021062    1.9952045 
   27950   0.44668385     -0.23666  0.058777328   0.26842894    1.9746657 
   28000   0.45641505  -0.25234094   0.06337572   0.26706948    1.9079616 
   28050   0.45396259  -0.23448993   0.04876615    0.2678605    1.9660461 
   28100   0.45720387  -0.23958064  0.051756103   0.26899833    1.9766281 
   28150   0.45388107  -0.24748751  0.063706596   0.26972192     1.846269 
   28200   0.45804739  -0.24316927  0.056960731   0.27145715    1.9579478 
   28250   0.46077381  -0.24560105  0.056993721    0.2717825    1.9410461 
   28300   0.45595171  -0.24694259  0.063522874   0.27215204    1.9007809 
   28350   0.46793847  -0.25037746  0.053601654   0.27077272    1.8910489 
   28400   0.45380865  -0.24000702  0.057135093   0.27055855     2.001066 
   28450   0.44527928  -0.23324034   0.05866374   0.27033161     1.982479 
   28500   0.45894033   -0.2430252  0.054388327   0.26992101    1.9564483 
   28550   0.45891183  -0.24798438  0.062586694   0.27313172    1.8763915 
   28600   0.46004981  -0.24604982  0.058464308   0.27208092    1.9232585 
   28650   0.46763067  -0.24461753  0.048736324   0.27135977    1.9046475 
   28700   0.45604605  -0.24194682   0.05701912   0.27073831    1.9854241 
   28750   0.45610281   -0.2387112   0.05596815   0.27297967    1.9078995 
   28800   0.46091062   -0.2486185  0.059607109   0.27151514    1.9010939 
   28850   0.45241318  -0.24629877  0.065864229   0.27160163    1.9115133 
   28900   0.45335051  -0.24042029  0.057340459   0.26989289    1.9394105 
   28950    0.4385186  -0.22491294  0.056791917   0.27003214    2.0678963 
   29000   0.44503769  -0.22811841  0.051861176   0.26840959     1.993083 
   29050   0.44794892  -0.23744645  0.058399299   0.26852848    1.9725566 
   29100   0.46458546  -0.25713017  0.062222869     0.269291    1.8966812 
   29150   0.46573678  -0.24460467  0.051196693   0.27194069    1.9014407 
   29200   0.46192462  -0.23872476  0.049519206   0.27233413    2.0050346 
   29250   0.44666672  -0.23422286  0.059806854   0.27187848    1.9869951 
   29300   0.45644202  -0.24497624  0.058856072   0.26994149    1.9805255 
   29350   0.45517809  -0.24259027  0.058631325   0.27083983    1.9207605 
   29400   0.45166919  -0.24262327  0.063889574    0.2725591    1.9470898 
   29450   0.44828347  -0.23479163  0.056545796   0.26966406    1.9810852 
   29500   0.45453125  -0.24313325  0.056626696   0.26764592    1.9677212 
   29550    0.4602322  -0.24823496  0.057470902   0.26908462    1.9467565 
   29600   0.45452493  -0.23879957   0.05536868   0.27071528    1.9842233 
   29650   0.46437834  -0.24894712  0.055530791   0.27057503    1.9071705 
   29700   0.46380406  -0.25163171  0.058201993   0.26998784    1.8566516 
   29750   0.45747581  -0.23988543  0.056394819   0.27360397    1.9353339 
   29800    0.4631885  -0.25299455   0.06234627   0.27215423    1.8581965 
   29850   0.46070818   -0.2478157  0.059137616   0.27164617    1.9545142 
   29900   0.45357278  -0.23738109  0.059637526   0.27545124    1.8566753 
   29950   0.44710761  -0.24241358  0.068907876   0.27322931    1.9315461 
   30000   0.45183265  -0.25032435  0.068650944   0.26978272    1.9055357 
   30050   0.45906858  -0.24753849  0.060775655   0.27192319    1.8988045 
   30100         0.45    -0.226909  0.069832356   0.29254836    2.0279074 
   30150   0.48128294  -0.23873443  0.050266685   0.29241412    1.9898242 
   30200   0.46601762  -0.23535451  0.064078359   0.29435312    1.9778156 
   30250   0.46794551  -0.23410755   0.05898515   0.29243315    2.0474921 
   30300   0.46925518  -0.24035156  0.061060402   0.28957298    1.9870436 
   30350   0.46901556  -0.23360982  0.057186886   0.29220178    1.9986188 
   30400   0.46492775  -0.23198816   0.05778462   0.29033678    2.0823617 
   30450   0.47467999  -0.23937714  0.057678258   0.29258554     1.976269 
   30500   0.45636275  -0.23499372  0.069146872   0.29013561    1.9833231 
   30550   0.46648401  -0.23667426  0.061273906   0.29069492    1.9823014 
   30600   0.46856828  -0.23668051  0.059125285   0.29062259    2.0030242 
   30650   0.46794676  -0.23232999  0.055687728   0.29091455    2.0102179 
   30700         0.45  -0.23614736  0.053856566   0.26733421    1.9856059 
   30750   0.45972454  -0.25380479  0.061562005   0.26709865    1.8465591 
   30800   0.44193669  -0.24128115   0.06802406   0.26831132    1.9425768 
   30850    0.4510103  -0.24486161  0.063539023   0.26931187    1.8959994 
   30900   0.45482646   -0.2481695  0.063489446   0.26976738    1.8813074 
   30950   0.46502339  -0.25578225  0.057050094   0.26590371    1.8472095 
   31000   0.44900403  -0.24300689  0.061300585   0.26692355    1.9296062 
   31050   0.46082557  -0.24944294  0.057084059   0.26808267    1.9173917 
   31100   0.44645246  -0.24305345  0.061911092   0.26493806    1.9074591 
   31150   0.45531276  -0.25206039  0.066586855    0.2694598    1.8345995 
   31200   0.45460344  -0.24264386  0.055623612   0.26720436    1.9509615 
   31250   0.46196398  -0.24678161    0.0523786     0.267176    1.9103078 
   31300   0.45187477  -0.24448503  0.060861461   0.26787463    1.9203776 
   31350   0.45784025  -0.24423795  0.054612036    0.2678328    1.8747396 
   31400    0.4556496  -0.24781898  0.058241638   0.26569255    1.9536064 
   31450   0.45527788  -0.25165634  0.063175803   0.26641794    1.8130316 
   31500   0.45161149  -0.25186989  0.066539522   0.26590477    1.8181158 
   31550   0.44460137  -0.23917534  0.060991188   0.26604671    1.9692194 
   31600   0.45639037  -0.25410064  0.062233276   0.26414268    1.8016705 
   31650   0.44643731  -0.24942445  0.070025773    0.2666666    1.9053146 
   31700   0.44744217  -0.24029268  0.058732067   0.26550869    1.8774293 
   31750   0.44400349  -0.24337953   0.06456036   0.26481432    1.9271376 
   31800   0.45659185  -0.25247385  0.063076957   0.26681447    1.8402275 
   31850   0.44104808  -0.23993871  0.063302744   0.26404457    1.9631535 
   31900   0.45889825  -0.24924724   0.05509318   0.26436177    1.8952788 
   31950   0.44570183  -0.23865331  0.059892457   0.26656956    1.9705385 
   32000         0.45  -0.25436846  0.050834398   0.24609094    1.7824524 
   32050   0.44019347  -0.24730747  0.054571854   0.24709103    1.9298076 
   32100   0.44093432  -0.24841959  0.053170781   0.24531806      1.89389 
   32150   0.43721095  -0.24694227  0.055509464    0.2454138    1.8406002 
   32200   0.44276421  -0.24821158   0.05369091   0.24787457    1.8282412 
   32250   0.43065696  -0.23756552   0.05363366   0.24636622     1.933416 
   32300         0.45  -0.23053465  0.054413003   0.27350335    1.9983143 
   32350   0.45959607  -0.24169456  0.054698713   0.27221722    1.9539868 
   32400   0.45495812   -0.2376819  0.053693394   0.27059048    1.9728641 
   32450   0.45665483  -0.25428118  0.065717257   0.26771037    1.8965362 
   32500   0.45581583  -0.24792877  0.060509537   0.26801675    1.8635708 
   32550   0.45686603  -0.24251882  0.054984532   0.26895101    1.9865875 
   32600   0.44832186   -0.2452426  0.070280562   0.27298622    1.8850563 
   32650   0.45165564  -0.24261138  0.063278381   0.27194625    1.9005183 
   32700   0.44471623  -0.23376476  0.062224952   0.27280583    1.9628798 
   32750    0.4563034  -0.23880236  0.055920473   0.27304126     1.915165 
   32800    0.4655918  -0.25192482   0.05912141   0.27240039    1.9393742 
   32850   0.44322542  -0.22711648  0.055698803   0.27143839     2.009731 
   32900     0.462755  -0.24267701   0.05488276   0.27457512    1.9465783 
   32950   0.44991971  -0.24089635  0.063906605   0.27255504    1.9370401 
   33000   0.45741268  -0.23702673  0.053176806   0.27318158    1.9711009 
   33050     0.462147  -0.24459528  0.054820144   0.27198674    1.9085883 
   33100   0.46187268  -0.24406894  0.054651469   0.27207032    1.9040173 
   33150   0.46794276  -0.25455806  0.056526606   0.26952136    1.8712777 
   33200   0.45219684  -0.23940929  0.058118133   0.27052885    2.0194725 
   33250   0.45103552  -0.23921534  0.062287874    0.2737322    1.9850058 
   33300   0.45841947  -0.23402639  0.053084099   0.27709516    1.9783102 
   33350   0.44791283  -0.22501525  0.053182763   0.27570708    2.0335361 
   33400   0.45295656  -0.23815096  0.058987717   0.27341586    1.9603401 
   33450   0.45362034  -0.24368862  0.064513709   0.27406741    1.9196777 
   33500   0.45667571  -0.24610381  0.064360834   0.27455216    1.9303669 
   33550   0.46100614   -0.2516262  0.064187403   0.27318317    1.8283348 
   33600   0.43550282  -0.22325532  0.057558568   0.26944315     2.073322 
   33650   0.45771542  -0.24215803  0.057363354   0.27253931    1.9161463 
   33700   0.45744951  -0.24867433  0.064449258   0.27284323    1.9043662 
   33750   0.45879652  -0.25032916  0.063260066   0.27134509    1.8592088 
   33800   0.46152034  -0.24131449  0.055408836   0.27523008    1.9414737 
   33850   0.47457628  -0.25143477   0.05133086   0.27407688    1.8806034 
   33900   0.44435171  -0.22349002  0.054427162   0.27491856    2.0199189 
   33950    0.4657957  -0.24144146  0.052644287   0.27661036    1.9572543 
   34000         0.45  -0.24567798  0.046956691   0.25090371    1.8548387 
   34050   0.45728036  -0.26455968  0.057836114   0.25017573    1.7776295 
   34100   0.45366323  -0.25945614  0.055166089   0.24899513    1.8366879 
   34150   0.43413828  -0.25063083   0.06839833     0.251544    1.8440994 
   34200         0.45  -0.24114105   0.06625927   0.27474322    1.9682347 
   34250   0.45636754  -0.23490159  0.055451504   0.27653714    1.9810774 
   34300   0.45248164  -0.24202458  0.063585467   0.27366545    1.9154673 
   34350   0.45027434  -0.23807743  0.064546347   0.27636802    1.9465892 
   34400   0.46066588  -0.25097695  0.065085683   0.27439072    1.9063774 
   34450   0.46340112  -0.24989867  0.060914371   0.27403065    1.8485561 
   34500   0.44724327  -0.23718954  0.064946598   0.27462762    1.9525752 
   34550   0.45733112  -0.23878067  0.054209407   0.27237875    1.9255939 
   34600   0.44609752  -0.22602006  0.057912255   0.27761797    2.0472767 
   34650   0.46646159  -0.24760799  0.055973807    0.2744387    1.8753162 
   34700         0.45  -0.25160444  0.056734977   0.25475553    1.7859995 
   34750   0.43527179  -0.25311044  0.072177156   0.25397578    1.8749327 
   34800   0.43136112  -0.24730336  0.069817662   0.25351596    1.9081081 
   34850   0.44469408  -0.25210279  0.060163534   0.25238425    1.8482539 
   34900   0.44554685  -0.25537174    0.0621518   0.25195562    1.8497221 
   34950    0.4572017  -0.26571875  0.060910998   0.25201294    1.7319606 
   35000         0.45  -0.24285706  0.065998395   0.27276634    1.9196345 
   35050   0.45073843  -0.24367779  0.062124153   0.26880918    2.0221528 
   35100   0.44407356   -0.2363849   0.06608069   0.27339928    1.9457494 
   35150    0.4513377  -0.24039006  0.062371024   0.27294255    1.9650428 
   35200   0.45852963  -0.24605658  0.060374843   0.27246578    1.9514309 
   35250   0.44279446  -0.23098792  0.062275478   0.27371303    1.9690665 
   35300   0.45379036  -0.23822534  0.058670397   0.27385726    2.0057518 
   35350   0.46558394  -0.24457117  0.051151384   0.27177616    1.9126875 
   35400   0.44572782  -0.23567118  0.061334556   0.27101975     1.946255 
   35450   0.45263264  -0.24037526  0.059903818     0.271784    2.0271172 
   35500   0.45677221  -0.24142702  0.054909076   0.26987362    1.9309153 
   35550   0.45008602  -0.23995334  0.061572668   0.27133028     1.969155 
   35600   0.45395108  -0.23660386  0.055807368    0.2727763    2.0293333 
   35650   0.43956868  -0.23470512  0.066435921   0.27093317    1.9828302 
   35700   0.44766905  -0.24549936  0.069531208   0.27132784    1.9144004 
   35750   0.46010477  -0.25220296  0.062620481   0.27013888    1.8518795 
   35800   0.45307456  -0.24090165  0.060845719   0.27264106    1.9444243 
   35850   0.45803694  -0.24650609   0.06061555    0.2717647    1.9379418 
   35900     0.454259  -0.23875711  0.057680523   0.27280386    1.9803488 
   35950   0.45813615  -0.24887134  0.064372816   0.27325585    1.8809326 
   36000   0.43812494  -0.22920819  0.063673907   0.27222555    2.0387187 
   36050   0.44657869  -0.23201119  0.059953482   0.27414884    1.9847539 
   36100   0.44212254  -0.23519194  0.065291758   0.27185393    1.9470074 
   36150   0.45820193  -0.25020623  0.064198638    0.2718125    1.8806735 
   36200   0.45597238   -0.2483765   0.06575113   0.27296703    1.8773651 
   36250   0.46872182  -0.25268062  0.057841393   0.27349198    1.8250092 
   36300   0.46391479  -0.25317049  0.064771095    0.2751288    1.7788602 
   36350   0.45083372  -0.24188147  0.063144201   0.27172075    1.9741935 
   36400   0.45471999  -0.24096795  0.060185159   0.27355826    1.9001313 
   36450   0.44288945  -0.22792578  0.058862727   0.27345732    2.0173705 
   36500   0.44157243  -0.23014996  0.061562622   0.27261711    2.0427839 
   36550   0.45775045  -0.24680459  0.062765065   0.27332946    1.9470947 
   36600   0.45608363  -0.24170796  0.056987954   0.27098356    1.8822115 
   36650   0.45629229   -0.2427492  0.057951952    0.2711148    1.9581451 
   36700   0.45448831  -0.24469878   0.06212939   0.27154018    1.8443654 
   36750   0.46170975  -0.24936186  0.060985706   0.27294884    1.8813949 
   36800   0.44186112  -0.22942464   0.06111731   0.27318557    1.9947002 
   36850   0.45372411  -0.23719938  0.056246202   0.27239282    2.0028002 
   36900   0.45031099  -0.23359642  0.056298886    0.2726382    1.9293757 
   36950    0.4492732  -0.24013402  0.062518751   0.27128354    1.9883065 
   37000   0.44460258  -0.23501915  0.062446515   0.27165944    1.9311249 
   37050   0.45576265  -0.23911114  0.058209493    0.2744812    1.9792219 
   37100   0.45467059  -0.23801398  0.055310306   0.27158803     1.885397 
   37150    0.4487506  -0.23456452  0.060247516   0.27405964    1.9864339 
   37200   0.45776998  -0.23935137  0.055011555   0.27304869    1.9605795 
   37250   0.46154699  -0.24969436  0.061534197   0.27300221    1.8849393 
   37300   0.45478078  -0.24314928  0.062484953   0.27373746    1.9279467 
   37350   0.45185692  -0.24151596   0.06139164   0.27135605    1.9542611 
   37400   0.46602845  -0.25127581  0.057765246   0.27212953    1.8661175 
   37450   0.45686249  -0.24089259  0.057758478   0.27334767    1.9806194 
   37500   0.46253316  -0.24369646  0.053443471   0.27189472    1.9085272 
   37550   0.45554246   -0.2486796  0.067122543   0.27360578    1.9087563 
   37600   0.44949628  -0.23863249  0.061200978   0.27169019    1.9255985 
   37650   0.47076044  -0.25833352  0.056611853   0.26864647    1.8814852 
   37700   0.45967137  -0.24669128  0.057647595   0.27024462    1.9581308 
   37750   0.46483392  -0.24765038  0.055432147   0.27222833    1.9023031 
   37800   0.44365383  -0.23428897  0.062540982   0.27153613    1.9697784 
   37850   0.45321828  -0.24415665  0.063315298   0.27199925    1.9382664 
   37900   0.45834689  -0.24094767  0.053085034    0.2701023    1.9106201 
   37950   0.45646177  -0.25147361  0.063205231   0.26781301    1.9393304 
   38000   0.45983942  -0.24539231  0.057967863   0.27203177    1.8743158 
   38050   0.46010722  -0.24359979  0.057342936   0.27346694    1.9040243 
   38100   0.46114375  -0.25058533  0.062382822   0.27255696    1.8493358 
   38150   0.44605826  -0.24026613   0.06558159   0.27100201    2.0238416 
   38200         0.45  -0.25706555  0.060921593   0.25348105    1.8139573 
   38250   0.45330473  -0.25738301  0.053208228    0.2487522    1.8556127 
   38300   0.43443395  -0.24437779  0.060136356   0.24983049    1.9086967 
   38350   0.43515737  -0.23755109  0.055217125   0.25246077    1.9953361 
   38400   0.43439209  -0.24531847   0.06218558    0.2508972    1.8630113 
   38450    0.4263145  -0.24348484  0.068621404    0.2510958    1.8702386 
   38500   0.43403712  -0.24663588  0.065402679   0.25244222    1.8525281 
   38550   0.43479417  -0.23884005  0.058159732   0.25375153    1.8610748 
   38600   0.43217879  -0.23535525  0.056967271   0.25343067    1.9996463 
   38650   0.44335623   -0.2569952  0.065576499   0.25156807    1.8490324 
   38700   0.43505079  -0.25662142  0.072207482   0.25027431    1.8488822 
   38750   0.42192545  -0.22877642  0.059096302   0.25189373    2.0033144 
   38800   0.43425682  -0.24626535  0.063331998   0.25096159    1.9269615 
   38850   0.43952686  -0.25127459  0.062200233   0.25008624    1.8661427 
   38900         0.45  -0.24324418   0.06467733   0.27105815    1.9325587 
   38950    0.4436505  -0.23846537  0.068045867   0.27286128    1.9475148 
   39000   0.45448596  -0.24040661  0.056892304   0.27059291    1.9632756 
   39050   0.45136824  -0.23397719  0.055505603   0.27252051    1.9932212 
   39100   0.44727338  -0.24006633  0.066038967   0.27287329    1.9916735 
   39150   0.45827058  -0.24646895  0.059241284   0.27066102    1.9071505 
   39200    0.4474094  -0.23969903  0.061541122   0.26887866    1.9603824 
   39250   0.45719398  -0.24299015  0.058398863    0.2722217     1.953861 
   39300   0.45948881  -0.24692968  0.058754177    0.2709304    1.9281186 
   39350   0.46117901  -0.24075403    0.0519462   0.27198686    1.9573283 
   39400    0.4562534  -0.23828988  0.053446105   0.27102941    2.0764791 
   39450   0.45846665  -0.23775239  0.050834644   0.27116684    1.9249899 
   39500    0.4467636  -0.23679269  0.058106664   0.26770528    2.0443597 
   39550   0.45796106  -0.23795224  0.052373768   0.27200095    1.9675391 
   39600   0.45314277   -0.2413063  0.060522212   0.27198106    1.9166507 
   39650   0.44829629   -0.2382802  0.061757682   0.27140019    1.9512813 
   39700   0.45154501  -0.23711138  0.057327377   0.27138472    1.9881769 
   39750   0.45698835  -0.23867776  0.055509973   0.27343974    1.9450202 
   39800   0.46230796   -0.2440115  0.055731448   0.27364265    1.9224433 
   39850   0.45890824  -0.23719647  0.051924602   0.27325394    1.9432215 
   39900   0.46027134  -0.24865394  0.058839285   0.27007313    1.9081085 
   39950   0.44285286  -0.22364534  0.055084226    0.2739227    2.0472973 
   40000   0.44849108  -0.23780864  0.062188877   0.27249757    1.9534743 
   40050   0.45550192  -0.24705178  0.062370591   0.27044114     1.878835 
   40100   0.46295681  -0.24207903  0.051435553   0.27192753    2.0168481 
   40150    0.4630114  -0.23454771  0.046440975   0.27451882    1.9189232 
   40200   0.46282811  -0.23922673  0.050253652   0.27346935    1.9705982 
   40250    0.4494732  -0.23845788  0.060545694   0.27118645    1.9926169 
   40300   0.45596449  -0.24022071  0.055907834   0.27127164    1.9077482 
   40350   0.45250643  -0.23700125  0.056241594   0.27136968     1.985658 
   40400   0.44870398  -0.23756919  0.060866076   0.27162694    2.0085496 
   40450   0.45411906  -0.23919181  0.057139941   0.27168876    1.9395212 
   40500   0.45721668  -0.24899575  0.065768201   0.27360812     1.885229 
   40550   0.44892848  -0.24063512  0.063506757   0.27142601    1.9640387 
   40600   0.44466546   -0.2292327  0.057179357   0.27224156     2.080649 
   40650   0.47106928   -0.2577284  0.060063369   0.27301169    1.8346571 
   40700   0.46380779   -0.2446796  0.056133415    0.2748751    1.9161153 
   40750   0.45918396  -0.24404203  0.059256672   0.27401594    1.9585881 
   40800   0.46024237  -0.24201525  0.057923368   0.27576695    1.9648109 
   40850   0.45353453  -0.23585842  0.057346013   0.27464418    1.9006486 
   40900   0.44379507  -0.23174701  0.062515109   0.27419334    2.0710712 
   40950   0.45930356  -0.24238203  0.054720994   0.27125977    1.9573842 
   41000   0.45504167  -0.24388711  0.063231653   0.27400701    1.9083055 
   41050   0.44877303  -0.23749431  0.062037031   0.27294178    1.9385248 
   41100   0.45615691  -0.24955934  0.069646283   0.27586372    1.8554715 
   41150   0.45092236  -0.23861096  0.062598084   0.27453372    1.9821365 
   41200    0.4515477  -0.23839942  0.061213927   0.27398592    1.8967728 
   41250   0.45880005  -0.25059058  0.068112867      0.27594    1.8770885 
   41300    0.4475536  -0.23366713  0.060286365   0.27379987    1.9508735 
   41350   0.44540995  -0.23292784  0.060133825   0.27224477    2.0490654 
   41400   0.44742504  -0.23432755  0.064758917   0.27748355    1.9212409 
   41450   0.46181596  -0.25020837  0.061537657   0.27276039    1.8441514 
   41500   0.46731798  -0.25009463  0.056416039   0.27324996    1.9042856 
   41550   0.46394763  -0.25289607  0.061728134   0.27239306    1.8618281 
   41600    0.4575771  -0.25074371  0.066291503   0.27274359    1.9115139 
   41650   0.46424384  -0.24900071  0.058229177   0.27308544    1.9250964 
   41700   0.45502311  -0.23850169  0.055562471    0.2717047    1.9716805 
   41750   0.45145984  -0.23701544  0.060214361   0.27428254    1.9625648 
   41800   0.45621996  -0.24334882  0.062280881   0.27477184    1.8933005 
   41850   0.44874477  -0.23369946  0.058490972   0.27316233    1.9959648 
   41900   0.45205171  -0.24316794  0.063577928   0.27208499    1.9277858 
   41950   0.46384258   -0.2511469  0.058900132   0.27120927    1.9155008 
   42000   0.45482534  -0.23787785  0.053138731    0.2697072    1.9825251 
   42050   0.45296064  -0.24605826  0.065167485    0.2716924    1.9267561 
   42100   0.44922563  -0.24669497  0.069595103    0.2717514    1.9370083 
   42150   0.45398151  -0.24388227  0.061420668   0.27114159    1.8985221 
   42200   0.45618368  -0.24455768  0.060962963    0.2722088    1.9295932 
   42250   0.44333293  -0.23427485  0.062172625   0.27086126    1.9639147 
   42300   0.45608987  -0.24764644  0.063965798   0.27202915     1.950541 
   42350   0.44882026  -0.23516472  0.061303502   0.27458502    1.9633647 
   42400   0.45029894  -0.23677938  0.064016187    0.2771605     1.881151 
   42450   0.44023678  -0.22696336  0.062690425   0.27559698    2.0011626 
   42500   0.45854537  -0.24366586   0.06027079   0.27476817    1.8966185 
   42550   0.46138453  -0.24110965  0.054245614     0.274136    1.9084107 
   42600   0.45350513  -0.24314575  0.061485965   0.27146743    1.9336855 
   42650   0.44840415  -0.23910489  0.064868122   0.27379371    1.9024479 
   42700   0.45735996    -0.251338  0.066170176   0.27181101    1.8716168 
   42750   0.45687266  -0.24211997  0.058713061   0.27308502    1.9960138 
   42800    0.4563926  -0.24292596  0.060389984    0.2734763    1.9218547 
   42850   0.44119447  -0.22663804  0.060465426   0.27465419    2.0555832 
   42900   0.46428023  -0.24845115  0.056723695   0.27216588    1.9037442 
   42950   0.45956247  -0.24053253  0.055214492   0.27386146    1.9028578 
   43000   0.45314133   -0.2419194  0.062954268   0.27379858    2.0224244 
   43050   0.46036898  -0.24316981  0.058295475     0.275111    1.9295135 
   43100   0.45636961  -0.24220327  0.059775671   0.27356169    1.8832453 
   43150   0.45795372   -0.2434074  0.056460584   0.27062528    1.9873599 
   43200   0.46277828  -0.24725361  0.054846378    0.2699854    1.8920941 
   43250   0.44900749  -0.23783471  0.060823397   0.27162201    2.0723784 
   43300         0.45  -0.24828197  0.051925788   0.25326882    1.8231584 
   43350   0.44720091  -0.25408634  0.061305743   0.25404765    1.8695347 
   43400   0.43954817  -0.25380508  0.064897628   0.25027443    1.8054388 
   43450   0.43867956  -0.25188234  0.063290246    0.2497219      1.85689 
   43500   0.43953506  -0.24525971  0.057205957   0.25111503    1.8810544 
   43550   0.44636171  -0.25037072  0.056331626   0.25195065     1.873827 
   43600    0.4347097  -0.23875227  0.058287311   0.25388248    1.9090674 
   43650    0.4475411  -0.24774476   0.05584161     0.255265    1.8663955 
   43700   0.45555935  -0.25345861  0.051543183   0.25326429    1.8040594 
   43750   0.44873654  -0.24511664  0.052419539   0.25566549    1.9367549 
   43800   0.43938726  -0.23274912  0.048497181   0.25476917    2.0048318 
   43850   0.44983491  -0.24965331    0.0529223   0.25272904    1.8613134 
   43900   0.45200069  -0.25409962  0.056780986    0.2543054    1.8211295 
   43950   0.44984069  -0.25643573  0.061425257   0.25445536    1.8720378 
   44000   0.43270853  -0.24897403  0.070984162   0.25435807    1.8490223 
   44050   0.44752299  -0.25916507  0.065643918    0.2536289    1.7742789 
   44100   0.43477291  -0.24326077  0.061163499   0.25231334     1.914618 
   44150   0.45320963  -0.25177232  0.054349425   0.25540907    1.8344858 
   44200   0.44533631  -0.24858249  0.055539152   0.25192187    1.8704635 
   44250    0.4443829  -0.25048875  0.059621698   0.25314553    1.9091288 
   44300   0.43816229  -0.24855579  0.063381452   0.25262281    1.9019665 
   44350   0.44936037   -0.2574455  0.062848228   0.25438864    1.8522269 
   44400   0.44876919  -0.25413324  0.058020482   0.25228245    1.8104182 
   44450   0.43862018  -0.24505068  0.060364232   0.25356822    1.9085354 
   44500   0.44615837   -0.2441731   0.05347472   0.25508819    1.8552063 
   44550   0.45097206  -0.25241485  0.055153515   0.25333492    1.8743057 
   44600   0.45110355  -0.25850497  0.058718253   0.25094091    1.8042147 
   44650   0.43724899  -0.23717941  0.055367461   0.25507267    1.9836244 
   44700   0.44317529   -0.2450422  0.052680282   0.25044406    1.8563846 
   44750   0.44126844  -0.25001411  0.062241394     0.253128    1.9452597 
   44800   0.44937585  -0.25512678  0.058635336   0.25250993    1.8173704 
   44850   0.44614948  -0.24924856  0.054214068   0.25074319    1.8656238 
   44900   0.44932953  -0.25033646  0.055898238   0.25451687    1.9034808 
   44950   0.44363079  -0.24368181  0.056510944   0.25609022    1.9147787 
   45000   0.45439184   -0.2568938  0.055738975   0.25285836    1.8193703 
   45050   0.45470084  -0.25463102  0.053341928   0.25303283    1.8521147 
   45100   0.44942016  -0.25288486  0.055897462   0.25205825    1.9012377 
   45150    0.4486858  -0.24546076  0.049888462    0.2527396    1.9054746 
   45200   0.43338346  -0.23367126  0.055281629   0.25463267    2.0401218 
   45250   0.44030086  -0.24062839  0.055531546    0.2548371    1.9498837 
   45300   0.45444774  -0.25362366  0.055480573   0.25592595    1.8720985 
   45350   0.44069869  -0.24661391  0.062598192   0.25631573    1.9259095 
   45400   0.43444304  -0.23279004  0.052806599   0.25409756    1.9356431 
   45450   0.43664552  -0.23310419  0.052943085   0.25612054     1.971104 
   45500         0.45  -0.22886151  0.059493373   0.28025686    2.0005478 
   45550   0.47330066  -0.25454876  0.057844171   0.27620165    1.8901632 
   45600   0.45196546  -0.23790975  0.062662449   0.27634153    1.9944408 
   45650   0.45833445  -0.24356869  0.062896483   0.27728029    1.9285563 
   45700    0.4566069   -0.2388951  0.060836496    0.2781678    1.9538801 
   45750   0.46156022   -0.2435561  0.059965514   0.27758501    1.9771897 
   45800   0.46810995  -0.24991221   0.05673673   0.27454438    1.9145191 
   45850    0.4559511  -0.23517881  0.058796069    0.2791884    1.9843174 
   45900         0.45  -0.24980945  0.050936536   0.25075209    1.8956858 
   45950   0.43244288  -0.24721007  0.066337255    0.2512097    1.8773156 
   46000   0.44406536  -0.25208821  0.060618487   0.25222558    1.8119243 
   46050   0.45330208  -0.25158497  0.052378372   0.25371772     1.884118 
   46100   0.44794922  -0.24730908  0.050761042   0.25102789    1.8282798 
   46150   0.44954721  -0.26251313  0.062503052   0.24916251    1.8443294 
   46200   0.43758483  -0.24343848  0.056992153   0.25077385    1.9318001 
   46250   0.44045872  -0.24476648  0.057079599   0.25240479    1.9213321 
   46300   0.43985166  -0.24460605  0.057920757   0.25279982    1.8943506 
   46350   0.44135364  -0.24834206  0.059759208   0.25240299    1.8782111 
   46400         0.45  -0.23719735  0.058371127   0.27079878    1.9196003 
   46450   0.44557051  -0.23564689   0.06162574   0.27117805     2.067833 
   46500   0.46177534  -0.23769225  0.048601055   0.27229934    1.9400248 
   46550   0.44354545  -0.22858297  0.056078112   0.27067097    1.9927358 
   46600   0.44863156  -0.23688233  0.057978763   0.26935414    2.0202664 
   46650    0.4631684   -0.2430362  0.051593694   0.27133992    1.9472229 
   46700   0.45739774  -0.24155097  0.057418507   0.27288412    1.9417028 
   46750   0.45802837  -0.24521478  0.058173262   0.27060516    1.9495772 
   46800   0.45054039  -0.23235369  0.052226272   0.27003752    2.0212473 
   46850   0.44728782  -0.23598554  0.060091408   0.27102095    1.9938688 
   46900   0.44719253  -0.23663448  0.060065294   0.27025068    2.0085924 
   46950    0.4588336   -0.2455937  0.059908752    0.2727663    1.9431349 
   47000   0.44486916   -0.2355235  0.061790668   0.27076561     1.967147 
   47050   0.46909965  -0.24939209  0.051610188   0.27092683     1.882636 
   47100   0.44866477  -0.23060328  0.053609135   0.27129674    2.0369231 
   47150   0.44741341  -0.23240579  0.054714236   0.26934901    2.0048185 
   47200   0.46126368  -0.24191696  0.054751337   0.27371368     1.947459 
   47250   0.45834388  -0.24026714  0.054942388   0.27263717    1.9479403 
   47300   0.44460744  -0.24121138  0.067816042   0.27084159     1.945984 
   47350   0.45054633  -0.23357266  0.054720737   0.27131895    2.0331663 
   47400    0.4572581  -0.24600022  0.057129915   0.26800674    1.9495102 
   47450   0.44794899  -0.23948951  0.064245521   0.27233171    1.9512757 
   47500   0.44864913   -0.2338095  0.056769041    0.2712348    2.0096571 
   47550   0.45740128  -0.24443865  0.058670168   0.27125163    1.9540634 
   47600    0.4480926  -0.23504541  0.059088652   0.27176242    1.9267698 
   47650    0.4554741  -0.24187223  0.059357241   0.27257955    2.0321628 
   47700   0.45732985  -0.24418006  0.060052005   0.27282069    1.8897251 
   47750    0.4481596  -0.23512267  0.059994598   0.27265806    1.9756773 
   47800    0.4617922  -0.24425188  0.054666435   0.27182193    1.9227382 
   47850   0.46179443  -0.24666043  0.057399809   0.27214899    1.9281269 
   47900   0.44310377  -0.23055557  0.057696874   0.26987582    2.0572613 
   47950   0.45875097  -0.24492294  0.058904308   0.27235004    1.9358152 
   48000     0.467714  -0.25171436   0.05382955   0.26943943    1.8716751 
   48050   0.44357478  -0.23327957  0.059851746   0.26977731    1.9558497 
   48100   0.45917012  -0.25255554  0.062584562   0.26881651    1.8465078 
   48150   0.46020522  -0.24393578  0.055123354   0.27100929    1.9127214 
   48200   0.45768575  -0.24513131  0.059673449   0.27184648    1.9261652 
   48250   0.46388144  -0.25166647  0.060639551   0.27246795    1.8519652 
   48300   0.45965994  -0.24522315   0.05883594   0.27288968    1.8956435 
   48350   0.45842168     -0.24006  0.055507597   0.27348725    1.8954483 
   48400   0.46551256  -0.25669241  0.063519963   0.27195219     1.835254 
   48450   0.44020406  -0.23396817   0.06509988   0.27096894    2.0001727 
   48500   0.46329112  -0.24526849  0.055117527   0.27275408    1.8911122 
   48550   0.45899751  -0.24691284   0.06252354   0.27422571    1.9271996 
   48600   0.46424019  -0.24729288  0.056297209   0.27285764    1.9224255 
   48650   0.45644929  -0.24398511  0.061238723   0.27332252    1.9183755 
   48700   0.45594667  -0.24280003  0.061652159   0.27441884    1.9289936 
   48750   0.46719762  -0.24858004  0.055531353    0.2737596    1.9110562 
   48800   0.46080675  -0.24752073  0.058662052   0.27156406    1.8799055 
   48850   0.45094672  -0.23678166  0.056802523   0.27059179    2.0085827 
   48900   0.46114256  -0.24044796  0.055554367   0.27586468    1.8945927 
   48950   0.46092817  -0.24238554  0.054500328   0.27265885    1.9278204 
   49000    0.4469321  -0.23644378  0.061373189   0.27148907    1.9850318 
   49050   0.45444034  -0.24655857  0.064617821    0.2721209    1.8355432 
   49100   0.44637776  -0.23960132  0.066521039    0.2729255    1.9809111 
   49150   0.45380253   -0.2389179  0.057882671   0.27238913    1.9040462 
[...]
   87550   0.46449674  -0.25027938  0.053721013   0.26755129    1.8328286 
   87600   0.45900175  -0.24303551  0.054204673   0.26978841    1.9494733 
   87650   0.46114033   -0.2472972  0.056154727   0.26961358    1.8452702 
   87700    0.4476703   -0.2407807  0.063317392   0.26983393    1.8904263 
   87750   0.45145957  -0.24547074    0.0613599   0.26697252    1.9167195 
   87800   0.45093883  -0.23872332  0.056553857   0.26839358    1.9102006 
   87850    0.4550489  -0.24626846   0.05957166    0.2679729    1.9112148 
   87900   0.44516507  -0.23749394  0.060003797   0.26730396    1.9353085 
   87950   0.45412078  -0.25043419  0.065354048    0.2686622    1.8304656 
   88000   0.44812814  -0.24183028  0.062802569   0.26872699    1.9324446 
   88050   0.44915631  -0.24794799  0.068234309   0.26906834    1.8899832 
   88100   0.44584643  -0.24323143  0.066627688   0.26887115    1.8717469 
   88150    0.4755111  -0.25655956  0.051660083   0.27021536    1.7810617 
   88200   0.45897913  -0.25367685  0.061846061   0.26676585    1.8436752 
   88250   0.44807003  -0.24113592  0.061110022   0.26767073     1.913321 
   88300   0.46104454  -0.24619788  0.054491627   0.26895408    1.8888144 
   88350   0.45366603  -0.24468788  0.063081623   0.27168172     1.939686 
   88400   0.45496663  -0.24252898  0.058098003   0.27015652    1.8933152 
   88450   0.46099955  -0.24252985   0.05187864   0.26996417    1.9113842 
   88500   0.46033893  -0.24715331  0.055936837   0.26873884    1.8855372 
   88550   0.46937849   -0.2567401  0.054629229   0.26687646    1.8222541 
   88600   0.45757406  -0.24989974  0.063187609   0.27048062    1.8449379 
   88650   0.44786994  -0.24650555  0.067559761   0.26855093    1.9131439 
   88700         0.45  -0.26887555  0.060728017   0.24147746    1.7180401 
   88750   0.43737771  -0.25947359  0.064067099   0.24160674     1.753531 
   88800   0.44142256  -0.26490917  0.064025637   0.24017118    1.7243479 
   88850   0.45444607  -0.26353107  0.053149649   0.24368594    1.7013308 
   88900   0.44415131  -0.26112177  0.058869483    0.2415289    1.7508339 
   88950   0.44085521  -0.24947977  0.052086442    0.2430945    1.8411337 
   89000   0.45456843  -0.26111746   0.04894968   0.24202184    1.7706613 
   89050   0.44025076  -0.25354749  0.056460438   0.24279683    1.8223847 
   89100   0.44982262  -0.25792754  0.052056242   0.24357647    1.8263389 
   89150   0.44457105  -0.25546399  0.056269505   0.24500609    1.7726642 
   89200   0.44429626  -0.26180961  0.060219675   0.24233608    1.7852003 
   89250   0.44041873  -0.25691382  0.060600048   0.24373793      1.77433 
   89300   0.43813232  -0.25080637  0.055701554   0.24266239    1.8259184 
   89350    0.4383106  -0.25475403  0.059608799   0.24280011    1.8444083 
   89400   0.43817413  -0.24938109  0.055129931   0.24355782    1.8354064 
   89450   0.44498448  -0.25724864  0.055744378    0.2431094    1.7821715 
   89500   0.43683488  -0.24652617  0.055167752   0.24511244    1.8346036 
   89550   0.43679193  -0.25596951  0.062745588   0.24320402    1.8003223 
   89600         0.45  -0.24870253  0.063343584   0.26426605    1.9065404 
   89650   0.44919516  -0.24509224  0.059044632   0.26277322    1.9402582 
   89700   0.45904221  -0.25084709  0.054043099   0.26185569    1.8112561 
   89750   0.44319636   -0.2416785  0.065416718   0.26656525    1.9048899 
   89800   0.46396381  -0.26301409  0.063731077   0.26429416    1.7792426 
   89850   0.46066974  -0.25183028  0.054540415   0.26299598    1.9036083 
   89900   0.45879964  -0.25067428  0.054854549   0.26259758    1.8401686 
   89950   0.44088795  -0.23933751  0.061644413   0.26282744     1.933887 
   90000   0.44932311  -0.25368389  0.066429302   0.26169408    1.8320777 
   90050    0.4624826   -0.2593706  0.062063966   0.26479056    1.7785293 
   90100   0.45259084  -0.25460221  0.066277396   0.26388886    1.8569385 
   90150   0.46504918  -0.26060032  0.060319699   0.26438102    1.7225105 
   90200   0.43992561  -0.25066083  0.073579094   0.26247727    1.8768998 
   90250   0.45303481  -0.25856454  0.065703471   0.25979621    1.8738825 
   90300   0.44493224  -0.24337911   0.06144924   0.26263159    1.9367988 
   90350    0.4446722  -0.24356868  0.061415789   0.26214875    1.9233417 
   90400   0.45550327  -0.25306211  0.059484109   0.26154569    1.8527593 
   90450   0.44205448  -0.25350052  0.071973883   0.26015947     1.881426 
   90500   0.43986679  -0.24230777  0.067071459   0.26426392    1.9294175 
   90550   0.43177394  -0.22037474   0.05109581    0.2621352    1.9602484 
   90600   0.44845112  -0.24872384  0.062779408   0.26213297    1.9369832 
   90650   0.44777312  -0.24290272  0.058267613   0.26276487    1.8789411 
   90700   0.44302106  -0.23083377  0.052022908   0.26384101    2.0038976 
   90750   0.44077197  -0.24087112  0.064276596   0.26381014     1.923989 
   90800   0.44435241  -0.24217944   0.06059961   0.26240228    1.9111392 
   90850   0.44802244  -0.24516088  0.058868642   0.26135686    1.9150462 
   90900    0.4584772  -0.25532706  0.061409443   0.26417752    1.8048967 
   90950   0.45307705   -0.2503082  0.060337628   0.26272892    1.9080226 
   91000   0.45142698  -0.24666263  0.056749984   0.26113814    1.8750599 
   91050   0.45074652  -0.25108362  0.063208953   0.26249623    1.9100804 
   91100   0.43460839  -0.23388519  0.063058278   0.26341931    1.9745226 
   91150    0.4448294  -0.24359734  0.063540727    0.2644021    1.8284944 
   91200   0.45778749  -0.25439626  0.060945507   0.26395525    1.8756487 
   91250   0.45647465  -0.24791134  0.052931227   0.26111414    1.9640405 
   91300   0.45544403  -0.25404268  0.060736943   0.26175876    1.8114193 
   91350    0.4563135  -0.24340961  0.055605356   0.26812898    1.9371275 
   91400   0.45406126  -0.24981425  0.061027196   0.26489582    1.8682439 
   91450   0.45858655  -0.24814318   0.05638611   0.26644732    1.8672957 
   91500   0.46637735  -0.25763839  0.057535425   0.26588573    1.8367705 
   91550   0.44067448  -0.23603061  0.063029704   0.26730634    1.9455877 
   91600   0.45497957  -0.24817762  0.060012425   0.26643523     1.900362 
   91650   0.45689435   -0.2486576  0.057688057   0.26554407    1.8485288 
   91700   0.45962106  -0.25338627  0.056876709   0.26272849    1.8964259 
   91750    0.4542205   -0.2495288  0.056675463   0.26098865    1.8852262 
   91800   0.45390668  -0.25218405  0.060662226    0.2620066      1.88293 
   91850   0.43023149  -0.22964823  0.063397386   0.26362212     2.037361 
   91900   0.44081905  -0.24216564  0.065001372   0.26328742    1.9020461 
   91950   0.47155663  -0.26214963  0.055584431   0.26459846    1.7104774 
   92000   0.45403377  -0.25591783  0.065612082   0.26334966    1.9085661 
   92050   0.45139032   -0.2448432  0.056672235    0.2628432    1.8574241 
   92100   0.46124789  -0.24835829  0.053207763   0.26571298    1.8792158 
   92150   0.45257558  -0.24653891  0.058047775    0.2637073    1.8530337 
   92200   0.44423842  -0.24407217   0.06423158   0.26402763    1.8619431 
   92250    0.4421957  -0.24515641  0.067352448   0.26402324    1.9262731 
   92300    0.4450664  -0.25033675  0.069770571   0.26412933    1.7914356 
   92350   0.43882095  -0.24046907  0.069700061   0.26768627    1.9694633 
   92400   0.44323152  -0.24260904  0.066131089   0.26638421    1.8706019 
   92450   0.45370547  -0.25330881  0.064341805   0.26436038    1.8451377 
   92500   0.44198918  -0.23399276  0.056960916   0.26458901    2.0012231 
   92550   0.44685606  -0.23945608  0.059439502    0.2664671    1.9614893 
   92600   0.43961732  -0.23075675  0.058509845   0.26700406    1.9817716 
   92650   0.45232727  -0.24798367  0.061331553   0.26529821    1.8565371 
   92700    0.4510941  -0.25743564  0.071413757    0.2646963    1.8335312 
   92750   0.45527219  -0.25175694  0.061598846    0.2647347      1.85063 
   92800   0.44772954  -0.24548884  0.062240482   0.26410807    1.9537553 
   92850   0.44787188  -0.24827701  0.063303555    0.2625252    1.8407189 
   92900   0.44634342  -0.24528662  0.064831972   0.26551682    1.8979721 
   92950   0.45929218  -0.25388787  0.059251351   0.26427292    1.8459983 
   93000   0.44260818  -0.23564598  0.059092607   0.26568597    1.9588627 
   93050   0.45196529  -0.25524297  0.067048719    0.2633944    1.8813687 
   93100   0.45048724   -0.2468285  0.061047824   0.26433116    1.8628519 
   93150   0.45306759  -0.24455704  0.056921182   0.26505417     1.839621 
   93200    0.4410249  -0.23909929  0.063562196   0.26512028    1.9363216 
   93250   0.44895066  -0.24331425  0.058500996   0.26376328    1.8741793 
   93300   0.45392635  -0.25141254  0.061521149    0.2636567    1.8630521 
   93350      0.44314  -0.24755222  0.069840709    0.2650592    1.8900569 
   93400   0.45570235  -0.24341292  0.057137628    0.2690473    1.8361749 
   93450   0.45151006  -0.24384224  0.059951908   0.26724347    1.8740822 
   93500   0.45459188  -0.24892972  0.060155783   0.26543912    1.8427699 
   93550   0.44144403  -0.23637583  0.061102344   0.26580267    1.9434612 
   93600   0.46443007  -0.25820466  0.058104972   0.26394335    1.8837034 
   93650   0.45512417  -0.24906964  0.058888999   0.26456426    1.8411079 
   93700   0.45535892  -0.24966051  0.058904303   0.26422325    1.8737867 
   93750   0.47411252  -0.26303996   0.05572438   0.26640185    1.8376137 
   93800         0.45  -0.27120113  0.061452231    0.2398761    1.6700937 
   93850   0.43748447  -0.25893868  0.063316624   0.24149784    1.7702132 
   93900   0.43917968  -0.25461764  0.056612033   0.24080809    1.8634394 
   93950   0.44021968  -0.25281718    0.0568186   0.24385425    1.8376931 
   94000   0.43937875  -0.25035883  0.054101781   0.24275555    1.8634417 
   94050   0.45198522  -0.26617996  0.057363769   0.24279238    1.7673373 
   94100   0.44212044  -0.25587615    0.0560114   0.24188725    1.7998212 
   94150   0.43670314  -0.25088705  0.053140071   0.23859224    1.8368108 
   94200   0.44422349   -0.2593362  0.056904387    0.2414215    1.8958507 
   94250   0.43091325  -0.24290037  0.056512836   0.24416663    1.8488878 
   94300         0.45  -0.24530682  0.064339605   0.26865778    1.8849294 
   94350   0.45201009  -0.24975498    0.0645558   0.26643423    1.8391686 
   94400   0.45857104  -0.25257162  0.064573904   0.27019118    1.8409248 
   94450   0.45461994  -0.24595432  0.057822988   0.26610976    1.9191552 
   94500   0.44375527  -0.23957463  0.062896868   0.26670771    1.9320545 
   94550   0.46117736  -0.25420576  0.057989874   0.26457717    1.8830141 
   94600   0.46822962  -0.25815757  0.056438869   0.26612073    1.8294975 
   94650   0.46095116  -0.24508657  0.053771309   0.26925177    1.8850495 
   94700   0.44568933  -0.24217031  0.064509084    0.2676567    1.9316555 
   94750   0.45391847   -0.2490232  0.061580203   0.26609721     1.908772 
   94800   0.45894007  -0.24359316  0.050779264   0.26574372    1.8947274 
   94850   0.45128588  -0.24680292   0.06171883   0.26582572    1.8696103 
   94900   0.45276025  -0.25067181  0.061242675   0.26295382    1.9469094 
   94950   0.44440513  -0.24433085  0.064550911   0.26425485    1.9204608 
   95000   0.46067029  -0.25249803  0.054686196   0.26247456    1.8650655 
   95050   0.44212369  -0.24173051  0.065727202   0.26575194    1.9437784 
   95100   0.45086801  -0.24094661  0.055740826    0.2652865    1.9380167 
   95150   0.45787442  -0.25249252  0.056863454    0.2618638    1.8873175 
   95200   0.44338444  -0.24364348  0.062914034   0.26228551     1.995441 
   95250   0.46172785  -0.25278243   0.05589938   0.26446002    1.8943726 
   95300   0.44161302  -0.23332262  0.055688836   0.26361122    1.9477359 
   95350   0.46437357  -0.25402837  0.054047779   0.26400599     1.886542 
   95400   0.44446458  -0.24441525  0.064010522   0.26368947    1.9412501 
   95450    0.4432875  -0.23771998   0.05976181   0.26495993    1.9404103 
   95500   0.44626376  -0.23913963  0.058646012   0.26539825    1.9278725 
   95550   0.47321548  -0.26223274  0.055354393   0.26594279    1.7966437 
   95600   0.46337832  -0.24513933  0.047520725   0.26537357    1.8853211 
   95650   0.45739674  -0.24897754  0.057507039   0.26554508    1.9348491 
   95700   0.45896348  -0.24472223  0.051306809   0.26516558    1.9370928 
   95750   0.44978832  -0.24309167  0.057739469   0.26406129    1.8842416 
   95800   0.45489879  -0.24627957  0.057942993   0.26618314    1.9198972 
   95850   0.45064649  -0.24153171   0.05654522   0.26528446    1.9722069 
   95900   0.44914472  -0.24361208  0.061637087   0.26679544    1.9322576 
   95950   0.46282281  -0.25248611  0.056767305   0.26671831    1.7893876 
   96000   0.44819889  -0.24045372  0.058450074   0.26582174    1.9258727 
   96050   0.45533797  -0.24142677  0.052617797   0.26614955    1.9355321 
   96100   0.45731591  -0.25468989  0.063219455   0.26546438    1.7865198 
   96150   0.45177573  -0.25579372  0.070227789   0.26583332    1.8535262 
   96200   0.44993179  -0.24873136   0.06443255   0.26525804    1.8393351 
   96250   0.44660171  -0.24537818  0.063992698   0.26484406    1.9046482 
   96300   0.45237818   -0.2464389  0.060645298    0.2662076    1.9181161 
   96350   0.46094504   -0.2540671  0.060258785    0.2667526    1.8439153 
   96400   0.45394922   -0.2428331  0.056639921   0.26737776    1.8677546 
   96450   0.43567922  -0.23582276  0.065995971   0.26548936    2.0178526 
   96500   0.44934204  -0.24475978  0.060736555   0.26494436    1.9242724 
   96550   0.44601061  -0.23488023  0.055355012   0.26611371     1.981799 
   96600    0.4591956  -0.24846955  0.055630988   0.26597437    1.8502876 
   96650   0.44854826   -0.2363172  0.054517588   0.26637486     1.914819 
   96700   0.45920056  -0.24859794  0.055875357   0.26609531    1.8954178 
   96750   0.45734527  -0.24725884  0.056777389    0.2664827    1.8847238 
   96800   0.45235775  -0.24731151  0.062054965   0.26672424    1.8714588 
   96850   0.45529775  -0.25299446  0.065611676   0.26753555    1.9118574 
   96900         0.45  -0.26732184  0.058194571   0.24049773    1.7340293 
   96950   0.43534946  -0.25684034  0.062395181   0.24054151    1.7948094 
   97000   0.44018156  -0.25794401  0.058773474   0.24064421    1.7995232 
   97050   0.44109678  -0.24918787  0.051633886   0.24317521    1.8511913 
   97100   0.44447966  -0.26056447  0.058593662   0.24213846    1.7526702 
   97150   0.41889898  -0.24611125  0.068663864   0.24110251    1.8735305 
   97200    0.4423727  -0.26073069  0.059196453   0.24046982    1.7761853 
   97250   0.44104297  -0.25458928  0.053012133   0.23909829    1.8128094 
   97300         0.45  -0.24148142  0.053480432   0.26162401    1.9705483 
   97350    0.4618233    -0.255232    0.0569216   0.26312805    1.7972877 
   97400   0.45668784  -0.25206448  0.057967043   0.26220983    1.8979576 
   97450   0.46253998  -0.25810141   0.06025248   0.26430559    1.7886226 
   97500   0.44680881  -0.23942725   0.05709625   0.26410546    1.9616608 
   97550   0.45053414  -0.24728125  0.060989848   0.26386729     1.912079 
   97600   0.45625118  -0.24596865  0.052555881    0.2624582    1.8619681 
   97650   0.44346431  -0.23007523  0.049769359   0.26278889    2.0105895 
   97700    0.4570627  -0.25246017  0.058869264    0.2630909    1.8947603 
   97750   0.46274403  -0.25003935   0.04980191   0.26212097    1.8869103 
   97800   0.45124336  -0.24344393  0.055414803   0.26283819    1.9178347 
   97850   0.43654322  -0.23141238  0.057896638   0.26266369    2.0477551 
   97900    0.4522421  -0.24658766  0.056490715   0.26176829    1.9160599 
   97950   0.44726031   -0.2416564  0.059910545   0.26514174    1.9167235 
   98000   0.44640933  -0.24235581  0.061710569   0.26539208    1.9425398 
   98050   0.45203154  -0.24822339  0.061160145   0.26459159    1.8395531 
   98100   0.44956281  -0.25497589  0.066996305   0.26120859     1.835652 
   98150   0.44794302  -0.24669359  0.061817125   0.26269327    1.8402725 
   98200   0.44951227  -0.24679176  0.059151631   0.26149755    1.9112971 
   98250   0.45791557  -0.24627496  0.051017054   0.26227607    1.8739767 
   98300   0.45839957  -0.25457288  0.060276253   0.26372095    1.8366738 
   98350   0.45569173  -0.25251744  0.061561149   0.26435569    1.8810394 
   98400   0.45248172  -0.24209652  0.053076579   0.26308471    1.8905316 
   98450   0.45106158  -0.24739045  0.061330362   0.26462562    1.8987256 
   98500   0.45765533   -0.2540127  0.059818251    0.2630795    1.8064967 
   98550   0.44305242  -0.23705976   0.05964139   0.26526484    1.9669834 
   98600   0.46055938  -0.24757387  0.049543001   0.26214471    1.8958359 
   98650     0.455197  -0.24052857   0.05084961   0.26513871    1.8303503 
   98700   0.45077126  -0.25497551  0.067261986   0.26268209    1.8614425 
   98750    0.4593897  -0.25031754  0.054299567    0.2629889    1.8174085 
   98800   0.45435096  -0.24888763  0.057668426   0.26275313    1.9266354 
   98850   0.46161344  -0.26781275  0.069412895   0.26282891    1.7739383 
   98900   0.45172809  -0.24372886  0.057237201   0.26485998    1.8516225 
   98950   0.44092806  -0.24333726  0.065316807   0.26254017    1.9277469 
   99000   0.46330275  -0.25657362  0.059659655    0.2660027    1.8228947 
   99050   0.44982842  -0.24734054  0.062534179    0.2646472    1.8569486 
   99100   0.45843007  -0.25612148  0.060903596   0.26283016    1.8699046 
   99150   0.45619206  -0.25337479  0.063758946   0.26619606    1.7754131 
   99200    0.4477689   -0.2543197  0.071647457   0.26472351    1.8983134 
   99250   0.45633741  -0.24943921   0.05775061   0.26426852    1.7925771 
   99300   0.44793753   -0.2434839  0.060082698   0.26416305    1.8818963 
   99350   0.45055381  -0.24574505  0.058636898   0.26307019    1.8974722 
   99400    0.4601213  -0.24470605  0.048440095   0.26347191    1.9102392 
   99450   0.45420066  -0.24866625  0.057618037   0.26277395     1.912839 
   99500   0.45316577  -0.24940089  0.059782304   0.26316954    1.8883388 
   99550   0.45425861  -0.24838098  0.058192268   0.26369135    1.8683236 
   99600   0.46224798  -0.25711174  0.057602441   0.26235348    1.7903422 
   99650   0.44272212  -0.24753413  0.067270208   0.26208927    1.8472874 
   99700   0.45533336  -0.25199413    0.0608424   0.26380218    1.8642355 
   99750   0.44142098    -0.241344  0.064557759   0.26426688     1.966792 
   99800   0.45683117  -0.25237537  0.057359991    0.2614351    1.8593801 
   99850   0.45066846  -0.25378013  0.065049708   0.26156249    1.8511299 
   99900   0.45804163  -0.25868549  0.064688637   0.26366307    1.8010707 
   99950   0.45336238  -0.24969707  0.062693649   0.26598115    1.9129925 
  100000   0.44733987  -0.24703164  0.061718879   0.26165433    1.8567732 
Loop time of 6.58355 on 4 procs for 100000 steps with 1200 atoms

Performance: 6561808.281 tau/day, 15189.371 timesteps/s
99.3% CPU use with 4 MPI tasks x no OpenMP threads

MPI task timing breakdown:
Section |  min time  |  avg time  |  max time  |%varavg| %total
---------------------------------------------------------------
Pair    | 3.5491     | 3.5894     | 3.6171     |   1.4 | 54.52
Bond    | 0.14663    | 0.17832    | 0.2215     |   6.4 |  2.71
Neigh   | 1.0375     | 1.0378     | 1.0384     |   0.0 | 15.76
Comm    | 0.81857    | 0.88974    | 0.96452    |   5.6 | 13.51
Output  | 0.25891    | 0.26093    | 0.26679    |   0.7 |  3.96
Modify  | 0.40423    | 0.41559    | 0.43427    |   1.8 |  6.31
Other   |            | 0.2118     |            |       |  3.22

Nlocal:        300.000 ave         315 max         289 min
Histogram: 1 0 1 0 1 0 0 0 0 1
Nghost:        225.500 ave         235 max         214 min
Histogram: 1 0 0 0 1 0 0 1 0 1
Neighs:        2431.50 ave        2459 max        2392 min
Histogram: 1 0 0 0 0 0 2 0 0 1

Total # of neighbors = 9726
Ave neighs/atom = 8.1050000
Ave special neighs/atom = 0.50000000
Neighbor list builds = 8241
Dangerous builds = 0
Total wall time: 0:00:06
