ITEM: TIMESTEP
0
ITEM: NUMBER OF ATOMS
420
ITEM: BOX BOUNDS pp ss pp
0.0000000000000000e+00 2.2653923264628304e+01
-1.9618873042551413e-03 1.9620834929855668e+01
-2.8317404080785380e-01 2.8317404080785380e-01
ITEM: ATOMS id type xs ys zs
1 2 0 9.998e-05 0.5
2 2 0.025 0.05009 0.5
3 2 0.05 9.998e-05 0.5
4 2 0.075 0.05009 0.5
5 2 0.1 9.998e-05 0.5
6 2 0.125 0.05009 0.5
7 2 0.15 9.998e-05 0.5
8 2 0.175 0.05009 0.5
9 2 0.2 9.998e-05 0.5
10 2 0.225 0.05009 0.5
11 2 0.25 9.998e-05 0.5
12 2 0.275 0.05009 0.5
13 2 0.3 9.998e-05 0.5
14 2 0.325 0.05009 0.5
15 2 0.35 9.998e-05 0.5
16 2 0.375 0.05009 0.5
17 2 0.4 9.998e-05 0.5
18 2 0.425 0.05009 0.5
19 2 0.45 9.998e-05 0.5
20 2 0.475 0.05009 0.5
21 2 0 0.10008 0.5
23 2 0.05 0.10008 0.5
25 2 0.1 0.10008 0.5
27 2 0.15 0.10008 0.5
29 2 0.2 0.10008 0.5
31 2 0.25 0.10008 0.5
33 2 0.3 0.10008 0.5
35 2 0.35 0.10008 0.5
37 2 0.4 0.10008 0.5
39 2 0.45 0.10008 0.5
22 1 0.025 0.15007 0.5
41 1 0 0.20006 0.5
43 1 0.05 0.20006 0.5
24 1 0.075 0.15007 0.5
45 1 0.1 0.20006 0.5
26 1 0.125 0.15007 0.5
28 1 0.175 0.15007 0.5
47 1 0.15 0.20006 0.5
30 1 0.225 0.15007 0.5
49 1 0.2 0.20006 0.5
32 1 0.275 0.15007 0.5
51 1 0.25 0.20006 0.5
53 1 0.3 0.20006 0.5
34 1 0.325 0.15007 0.5
55 1 0.35 0.20006 0.5
36 1 0.375 0.15007 0.5
38 1 0.425 0.15007 0.5
57 1 0.4 0.20006 0.5
40 1 0.475 0.15007 0.5
59 1 0.45 0.20006 0.5
42 1 0.025 0.25005 0.5
44 1 0.075 0.25005 0.5
46 1 0.125 0.25005 0.5
48 1 0.175 0.25005 0.5
50 1 0.225 0.25005 0.5
52 1 0.275 0.25005 0.5
54 1 0.325 0.25005 0.5
56 1 0.375 0.25005 0.5
58 1 0.425 0.25005 0.5
60 1 0.475 0.25005 0.5
61 1 0 0.30004 0.5
62 1 0.025 0.35003 0.5
63 1 0.05 0.30004 0.5
64 1 0.075 0.35003 0.5
65 1 0.1 0.30004 0.5
66 1 0.125 0.35003 0.5
67 1 0.15 0.30004 0.5
68 1 0.175 0.35003 0.5
69 1 0.2 0.30004 0.5
70 1 0.225 0.35003 0.5
71 1 0.25 0.30004 0.5
72 1 0.275 0.35003 0.5
73 1 0.3 0.30004 0.5
74 1 0.325 0.35003 0.5
75 1 0.35 0.30004 0.5
76 1 0.375 0.35003 0.5
77 1 0.4 0.30004 0.5
78 1 0.425 0.35003 0.5
79 1 0.45 0.30004 0.5
80 1 0.475 0.35003 0.5
81 1 0 0.40002 0.5
83 1 0.05 0.40002 0.5
85 1 0.1 0.40002 0.5
87 1 0.15 0.40002 0.5
89 1 0.2 0.40002 0.5
91 1 0.25 0.40002 0.5
93 1 0.3 0.40002 0.5
95 1 0.35 0.40002 0.5
97 1 0.4 0.40002 0.5
99 1 0.45 0.40002 0.5
82 1 0.025 0.45001 0.5
84 1 0.075 0.45001 0.5
86 1 0.125 0.45001 0.5
88 1 0.175 0.45001 0.5
90 1 0.225 0.45001 0.5
92 1 0.275 0.45001 0.5
94 1 0.325 0.45001 0.5
96 1 0.375 0.45001 0.5
98 1 0.425 0.45001 0.5
100 1 0.475 0.45001 0.5
101 1 0 0.5 0.5
102 1 0.025 0.54999 0.5
103 1 0.05 0.5 0.5
104 1 0.075 0.54999 0.5
105 1 0.1 0.5 0.5
106 1 0.125 0.54999 0.5
107 1 0.15 0.5 0.5
108 1 0.175 0.54999 0.5
109 1 0.2 0.5 0.5
110 1 0.225 0.54999 0.5
111 1 0.25 0.5 0.5
112 1 0.275 0.54999 0.5
113 1 0.3 0.5 0.5
114 1 0.325 0.54999 0.5
115 1 0.35 0.5 0.5
116 1 0.375 0.54999 0.5
117 1 0.4 0.5 0.5
118 1 0.425 0.54999 0.5
119 1 0.45 0.5 0.5
120 1 0.475 0.54999 0.5
121 1 0 0.59998 0.5
123 1 0.05 0.59998 0.5
125 1 0.1 0.59998 0.5
127 1 0.15 0.59998 0.5
129 1 0.2 0.59998 0.5
131 1 0.25 0.59998 0.5
133 1 0.3 0.59998 0.5
135 1 0.35 0.59998 0.5
137 1 0.4 0.59998 0.5
139 1 0.45 0.59998 0.5
122 1 0.025 0.64997 0.5
141 1 0 0.69996 0.5
143 1 0.05 0.69996 0.5
124 1 0.075 0.64997 0.5
145 1 0.1 0.69996 0.5
126 1 0.125 0.64997 0.5
128 1 0.175 0.64997 0.5
147 1 0.15 0.69996 0.5
130 1 0.225 0.64997 0.5
149 1 0.2 0.69996 0.5
132 1 0.275 0.64997 0.5
151 1 0.25 0.69996 0.5
153 1 0.3 0.69996 0.5
134 1 0.325 0.64997 0.5
155 1 0.35 0.69996 0.5
136 1 0.375 0.64997 0.5
138 1 0.425 0.64997 0.5
157 1 0.4 0.69996 0.5
140 1 0.475 0.64997 0.5
159 1 0.45 0.69996 0.5
142 1 0.025 0.74995 0.5
144 1 0.075 0.74995 0.5
146 1 0.125 0.74995 0.5
148 1 0.175 0.74995 0.5
150 1 0.225 0.74995 0.5
152 1 0.275 0.74995 0.5
154 1 0.325 0.74995 0.5
156 1 0.375 0.74995 0.5
158 1 0.425 0.74995 0.5
160 1 0.475 0.74995 0.5
161 1 0 0.79994 0.5
162 1 0.025 0.84993 0.5
163 1 0.05 0.79994 0.5
164 1 0.075 0.84993 0.5
165 1 0.1 0.79994 0.5
166 1 0.125 0.84993 0.5
167 1 0.15 0.79994 0.5
168 1 0.175 0.84993 0.5
169 1 0.2 0.79994 0.5
170 1 0.225 0.84993 0.5
171 1 0.25 0.79994 0.5
172 1 0.275 0.84993 0.5
173 1 0.3 0.79994 0.5
174 1 0.325 0.84993 0.5
175 1 0.35 0.79994 0.5
176 1 0.375 0.84993 0.5
177 1 0.4 0.79994 0.5
178 1 0.425 0.84993 0.5
179 1 0.45 0.79994 0.5
180 1 0.475 0.84993 0.5
181 1 0 0.89992 0.5
183 1 0.05 0.89992 0.5
185 1 0.1 0.89992 0.5
187 1 0.15 0.89992 0.5
189 1 0.2 0.89992 0.5
191 1 0.25 0.89992 0.5
193 1 0.3 0.89992 0.5
195 1 0.35 0.89992 0.5
197 1 0.4 0.89992 0.5
199 1 0.45 0.89992 0.5
182 1 0.025 0.94991 0.5
201 1 0 0.9999 0.5
202 1 0.05 0.9999 0.5
184 1 0.075 0.94991 0.5
203 1 0.1 0.9999 0.5
186 1 0.125 0.94991 0.5
188 1 0.175 0.94991 0.5
204 1 0.15 0.9999 0.5
190 1 0.225 0.94991 0.5
205 1 0.2 0.9999 0.5
192 1 0.275 0.94991 0.5
206 1 0.25 0.9999 0.5
207 1 0.3 0.9999 0.5
194 1 0.325 0.94991 0.5
208 1 0.35 0.9999 0.5
196 1 0.375 0.94991 0.5
198 1 0.425 0.94991 0.5
209 1 0.4 0.9999 0.5
200 1 0.475 0.94991 0.5
210 1 0.45 0.9999 0.5
211 2 0.5 9.998e-05 0.5
212 2 0.525 0.05009 0.5
213 2 0.55 9.998e-05 0.5
214 2 0.575 0.05009 0.5
215 2 0.6 9.998e-05 0.5
216 2 0.625 0.05009 0.5
217 2 0.65 9.998e-05 0.5
218 2 0.675 0.05009 0.5
219 2 0.7 9.998e-05 0.5
220 2 0.725 0.05009 0.5
221 2 0.75 9.998e-05 0.5
222 2 0.775 0.05009 0.5
223 2 0.8 9.998e-05 0.5
224 2 0.825 0.05009 0.5
225 2 0.85 9.998e-05 0.5
226 2 0.875 0.05009 0.5
227 2 0.9 9.998e-05 0.5
228 2 0.925 0.05009 0.5
229 2 0.95 9.998e-05 0.5
230 2 0.975 0.05009 0.5
231 2 0.5 0.10008 0.5
233 2 0.55 0.10008 0.5
235 2 0.6 0.10008 0.5
237 2 0.65 0.10008 0.5
239 2 0.7 0.10008 0.5
241 2 0.75 0.10008 0.5
243 2 0.8 0.10008 0.5
245 2 0.85 0.10008 0.5
247 2 0.9 0.10008 0.5
249 2 0.95 0.10008 0.5
232 1 0.525 0.15007 0.5
251 1 0.5 0.20006 0.5
253 1 0.55 0.20006 0.5
234 1 0.575 0.15007 0.5
255 1 0.6 0.20006 0.5
236 1 0.625 0.15007 0.5
238 1 0.675 0.15007 0.5
257 1 0.65 0.20006 0.5
240 1 0.725 0.15007 0.5
259 1 0.7 0.20006 0.5
242 1 0.775 0.15007 0.5
261 1 0.75 0.20006 0.5
263 1 0.8 0.20006 0.5
244 1 0.825 0.15007 0.5
265 1 0.85 0.20006 0.5
246 1 0.875 0.15007 0.5
248 1 0.925 0.15007 0.5
267 1 0.9 0.20006 0.5
250 1 0.975 0.15007 0.5
269 1 0.95 0.20006 0.5
252 1 0.525 0.25005 0.5
254 1 0.575 0.25005 0.5
256 1 0.625 0.25005 0.5
258 1 0.675 0.25005 0.5
260 1 0.725 0.25005 0.5
262 1 0.775 0.25005 0.5
264 1 0.825 0.25005 0.5
266 1 0.875 0.25005 0.5
268 1 0.925 0.25005 0.5
270 1 0.975 0.25005 0.5
271 1 0.5 0.30004 0.5
272 1 0.525 0.35003 0.5
273 1 0.55 0.30004 0.5
274 1 0.575 0.35003 0.5
275 1 0.6 0.30004 0.5
276 1 0.625 0.35003 0.5
277 1 0.65 0.30004 0.5
278 1 0.675 0.35003 0.5
279 1 0.7 0.30004 0.5
280 1 0.725 0.35003 0.5
281 1 0.75 0.30004 0.5
282 1 0.775 0.35003 0.5
283 1 0.8 0.30004 0.5
284 1 0.825 0.35003 0.5
285 1 0.85 0.30004 0.5
286 1 0.875 0.35003 0.5
287 1 0.9 0.30004 0.5
288 1 0.925 0.35003 0.5
289 1 0.95 0.30004 0.5
290 1 0.975 0.35003 0.5
291 1 0.5 0.40002 0.5
293 1 0.55 0.40002 0.5
295 1 0.6 0.40002 0.5
297 1 0.65 0.40002 0.5
299 1 0.7 0.40002 0.5
301 1 0.75 0.40002 0.5
303 1 0.8 0.40002 0.5
305 1 0.85 0.40002 0.5
307 1 0.9 0.40002 0.5
309 1 0.95 0.40002 0.5
292 1 0.525 0.45001 0.5
294 1 0.575 0.45001 0.5
296 1 0.625 0.45001 0.5
298 1 0.675 0.45001 0.5
300 1 0.725 0.45001 0.5
302 1 0.775 0.45001 0.5
304 1 0.825 0.45001 0.5
306 1 0.875 0.45001 0.5
308 1 0.925 0.45001 0.5
310 1 0.975 0.45001 0.5
311 1 0.5 0.5 0.5
312 1 0.525 0.54999 0.5
313 1 0.55 0.5 0.5
314 1 0.575 0.54999 0.5
315 1 0.6 0.5 0.5
316 1 0.625 0.54999 0.5
317 1 0.65 0.5 0.5
318 1 0.675 0.54999 0.5
319 1 0.7 0.5 0.5
320 1 0.725 0.54999 0.5
321 1 0.75 0.5 0.5
322 1 0.775 0.54999 0.5
323 1 0.8 0.5 0.5
324 1 0.825 0.54999 0.5
325 1 0.85 0.5 0.5
326 1 0.875 0.54999 0.5
327 1 0.9 0.5 0.5
328 1 0.925 0.54999 0.5
329 1 0.95 0.5 0.5
330 1 0.975 0.54999 0.5
331 1 0.5 0.59998 0.5
333 1 0.55 0.59998 0.5
335 1 0.6 0.59998 0.5
337 1 0.65 0.59998 0.5
339 1 0.7 0.59998 0.5
341 1 0.75 0.59998 0.5
343 1 0.8 0.59998 0.5
345 1 0.85 0.59998 0.5
347 1 0.9 0.59998 0.5
349 1 0.95 0.59998 0.5
332 1 0.525 0.64997 0.5
351 1 0.5 0.69996 0.5
353 1 0.55 0.69996 0.5
334 1 0.575 0.64997 0.5
355 1 0.6 0.69996 0.5
336 1 0.625 0.64997 0.5
338 1 0.675 0.64997 0.5
357 1 0.65 0.69996 0.5
340 1 0.725 0.64997 0.5
359 1 0.7 0.69996 0.5
342 1 0.775 0.64997 0.5
361 1 0.75 0.69996 0.5
363 1 0.8 0.69996 0.5
344 1 0.825 0.64997 0.5
365 1 0.85 0.69996 0.5
346 1 0.875 0.64997 0.5
348 1 0.925 0.64997 0.5
367 1 0.9 0.69996 0.5
350 1 0.975 0.64997 0.5
369 1 0.95 0.69996 0.5
352 1 0.525 0.74995 0.5
354 1 0.575 0.74995 0.5
356 1 0.625 0.74995 0.5
358 1 0.675 0.74995 0.5
360 1 0.725 0.74995 0.5
362 1 0.775 0.74995 0.5
364 1 0.825 0.74995 0.5
366 1 0.875 0.74995 0.5
368 1 0.925 0.74995 0.5
370 1 0.975 0.74995 0.5
371 1 0.5 0.79994 0.5
372 1 0.525 0.84993 0.5
373 1 0.55 0.79994 0.5
374 1 0.575 0.84993 0.5
375 1 0.6 0.79994 0.5
376 1 0.625 0.84993 0.5
377 1 0.65 0.79994 0.5
378 1 0.675 0.84993 0.5
379 1 0.7 0.79994 0.5
380 1 0.725 0.84993 0.5
381 1 0.75 0.79994 0.5
382 1 0.775 0.84993 0.5
383 1 0.8 0.79994 0.5
384 1 0.825 0.84993 0.5
385 1 0.85 0.79994 0.5
386 1 0.875 0.84993 0.5
387 1 0.9 0.79994 0.5
388 1 0.925 0.84993 0.5
389 1 0.95 0.79994 0.5
390 1 0.975 0.84993 0.5
391 1 0.5 0.89992 0.5
393 1 0.55 0.89992 0.5
395 1 0.6 0.89992 0.5
397 1 0.65 0.89992 0.5
399 1 0.7 0.89992 0.5
401 1 0.75 0.89992 0.5
403 1 0.8 0.89992 0.5
405 1 0.85 0.89992 0.5
407 1 0.9 0.89992 0.5
409 1 0.95 0.89992 0.5
392 1 0.525 0.94991 0.5
411 1 0.5 0.9999 0.5
412 1 0.55 0.9999 0.5
394 1 0.575 0.94991 0.5
413 1 0.6 0.9999 0.5
396 1 0.625 0.94991 0.5
398 1 0.675 0.94991 0.5
414 1 0.65 0.9999 0.5
400 1 0.725 0.94991 0.5
415 1 0.7 0.9999 0.5
402 1 0.775 0.94991 0.5
416 1 0.75 0.9999 0.5
417 1 0.8 0.9999 0.5
404 1 0.825 0.94991 0.5
418 1 0.85 0.9999 0.5
406 1 0.875 0.94991 0.5
408 1 0.925 0.94991 0.5
419 1 0.9 0.9999 0.5
410 1 0.975 0.94991 0.5
420 1 0.95 0.9999 0.5
ITEM: TIMESTEP
250
ITEM: NUMBER OF ATOMS
420
ITEM: BOX BOUNDS pp ss pp
0.0000000000000000e+00 2.2653923264628304e+01
-1.9618873042551413e-03 1.9703261682514302e+01
-2.8317404080785380e-01 2.8317404080785380e-01
ITEM: ATOMS id type xs ys zs
1 2 0 9.95618e-05 0.5
2 2 0.025 0.0498805 0.5
3 2 0.05 9.95618e-05 0.5
4 2 0.075 0.0498805 0.5
5 2 0.1 9.95618e-05 0.5
6 2 0.125 0.0498805 0.5
7 2 0.15 9.95618e-05 0.5
8 2 0.175 0.0498805 0.5
9 2 0.2 9.95618e-05 0.5
10 2 0.225 0.0498805 0.5
11 2 0.25 9.95618e-05 0.5
12 2 0.275 0.0498805 0.5
13 2 0.3 9.95618e-05 0.5
14 2 0.325 0.0498805 0.5
15 2 0.35 9.95618e-05 0.5
16 2 0.375 0.0498805 0.5
17 2 0.4 9.95618e-05 0.5
18 2 0.425 0.0498805 0.5
19 2 0.45 9.95618e-05 0.5
20 2 0.475 0.0498805 0.5
21 2 0 0.0996614 0.5
23 2 0.05 0.0996614 0.5
25 2 0.1 0.0996614 0.5
27 2 0.15 0.0996614 0.5
29 2 0.2 0.0996614 0.5
31 2 0.25 0.0996614 0.5
33 2 0.3 0.0996614 0.5
35 2 0.35 0.0996614 0.5
37 2 0.4 0.0996614 0.5
39 2 0.45 0.0996614 0.5
22 1 0.0261591 0.148428 0.5
100 1 0.473535 0.446939 0.5
43 1 0.051507 0.197085 0.5
24 1 0.0757568 0.150684 0.5
45 1 0.101992 0.194912 0.5
26 1 0.124984 0.148086 0.5
28 1 0.177018 0.149236 0.5
47 1 0.151483 0.196963 0.5
30 1 0.229582 0.150708 0.5
49 1 0.199406 0.198834 0.5
32 1 0.276454 0.150599 0.5
51 1 0.24863 0.201654 0.5
53 1 0.303421 0.200171 0.5
34 1 0.326157 0.149486 0.5
55 1 0.354302 0.196304 0.5
36 1 0.375937 0.14679 0.5
38 1 0.425106 0.146486 0.5
57 1 0.401677 0.19449 0.5
40 1 0.478119 0.150732 0.5
59 1 0.450062 0.193847 0.5
42 1 0.0251451 0.246403 0.5
44 1 0.0732312 0.246774 0.5
46 1 0.123316 0.249565 0.5
48 1 0.173834 0.246754 0.5
50 1 0.224652 0.251213 0.5
52 1 0.280095 0.248428 0.5
54 1 0.329582 0.247958 0.5
56 1 0.378451 0.246338 0.5
58 1 0.427798 0.245276 0.5
60 1 0.475305 0.249549 0.5
98 1 0.422476 0.448579 0.5
62 1 0.0256601 0.344607 0.5
63 1 0.049462 0.293745 0.5
64 1 0.0741412 0.346811 0.5
65 1 0.101906 0.298457 0.5
66 1 0.124437 0.349455 0.5
67 1 0.15102 0.298751 0.5
68 1 0.174257 0.349895 0.5
69 1 0.199341 0.299703 0.5
70 1 0.226854 0.348026 0.5
71 1 0.253999 0.295654 0.5
72 1 0.277047 0.349991 0.5
73 1 0.303758 0.297667 0.5
74 1 0.326526 0.349987 0.5
75 1 0.351469 0.296297 0.5
76 1 0.377972 0.344191 0.5
77 1 0.400382 0.295181 0.5
78 1 0.423799 0.350394 0.5
79 1 0.449525 0.29724 0.5
80 1 0.473855 0.349048 0.5
96 1 0.372617 0.450484 0.5
83 1 0.0517762 0.393163 0.5
85 1 0.107001 0.399833 0.5
87 1 0.153898 0.404564 0.5
89 1 0.202395 0.397313 0.5
91 1 0.252475 0.399039 0.5
93 1 0.30079 0.400593 0.5
95 1 0.347879 0.400553 0.5
97 1 0.398324 0.398673 0.5
99 1 0.448531 0.400303 0.5
82 1 0.0280502 0.443848 0.5
84 1 0.0782143 0.446323 0.5
86 1 0.128089 0.455146 0.5
88 1 0.177391 0.454252 0.5
90 1 0.224534 0.447212 0.5
92 1 0.276199 0.449832 0.5
94 1 0.323741 0.451327 0.5
111 1 0.247763 0.499215 0.5
103 1 0.0512694 0.495986 0.5
41 1 0.00116063 0.197404 0.5
61 1 0.00120518 0.297608 0.5
81 1 0.00137154 0.395026 0.5
101 1 0.0030533 0.494601 0.5
115 1 0.349277 0.499831 0.5
117 1 0.3999 0.495592 0.5
119 1 0.450101 0.497177 0.5
291 1 0.49837 0.400094 0.5
113 1 0.298031 0.498406 0.5
109 1 0.198528 0.50242 0.5
102 1 0.024765 0.54849 0.5
331 1 0.496608 0.594301 0.5
104 1 0.0740724 0.546672 0.5
196 1 0.374814 0.94116 0.5
106 1 0.123515 0.552483 0.5
208 1 0.351299 0.991716 0.5
108 1 0.175923 0.553304 0.5
194 1 0.324954 0.941335 0.5
110 1 0.223718 0.553063 0.5
204 1 0.148801 0.99872 0.5
112 1 0.270928 0.548186 0.5
207 1 0.296042 0.996949 0.5
114 1 0.32565 0.550069 0.5
206 1 0.246478 0.987647 0.5
116 1 0.374172 0.544452 0.5
192 1 0.276414 0.947019 0.5
118 1 0.424624 0.545645 0.5
205 1 0.200705 0.996864 0.5
120 1 0.475058 0.545227 0.5
210 1 0.452001 0.995736 0.5
123 1 0.0482454 0.598143 0.5
125 1 0.0973978 0.59663 0.5
127 1 0.150155 0.600003 0.5
129 1 0.197991 0.604609 0.5
131 1 0.248625 0.601571 0.5
133 1 0.298215 0.596019 0.5
135 1 0.348066 0.59842 0.5
137 1 0.398462 0.596496 0.5
139 1 0.448473 0.596031 0.5
122 1 0.0249883 0.648753 0.5
200 1 0.479555 0.942077 0.5
143 1 0.048233 0.697665 0.5
124 1 0.0746007 0.64753 0.5
145 1 0.098129 0.697316 0.5
126 1 0.122407 0.648318 0.5
128 1 0.172327 0.65209 0.5
147 1 0.145938 0.702684 0.5
130 1 0.222518 0.653574 0.5
149 1 0.194754 0.698209 0.5
132 1 0.275163 0.649865 0.5
151 1 0.251272 0.699245 0.5
153 1 0.301236 0.700135 0.5
134 1 0.323698 0.645317 0.5
155 1 0.352266 0.7009 0.5
136 1 0.377437 0.6475 0.5
138 1 0.425199 0.645821 0.5
157 1 0.399983 0.697601 0.5
140 1 0.4732 0.641232 0.5
159 1 0.451832 0.694856 0.5
142 1 0.02524 0.745236 0.5
144 1 0.0735697 0.746136 0.5
146 1 0.121387 0.749307 0.5
148 1 0.173275 0.751973 0.5
150 1 0.223002 0.746532 0.5
152 1 0.274152 0.752038 0.5
154 1 0.327222 0.750531 0.5
156 1 0.378326 0.7462 0.5
158 1 0.429166 0.743929 0.5
160 1 0.480828 0.742607 0.5
190 1 0.219735 0.944255 0.5
162 1 0.0221662 0.847316 0.5
163 1 0.0477076 0.795775 0.5
164 1 0.0719034 0.845365 0.5
165 1 0.096831 0.795245 0.5
166 1 0.119536 0.849138 0.5
167 1 0.146655 0.800603 0.5
168 1 0.171685 0.851188 0.5
169 1 0.195314 0.801766 0.5
170 1 0.218998 0.852542 0.5
171 1 0.24577 0.798315 0.5
172 1 0.269991 0.847898 0.5
173 1 0.299163 0.798517 0.5
174 1 0.321547 0.846138 0.5
175 1 0.352728 0.799797 0.5
176 1 0.37886 0.850474 0.5
177 1 0.406365 0.794194 0.5
178 1 0.43034 0.844041 0.5
179 1 0.457173 0.794166 0.5
180 1 0.477216 0.844193 0.5
209 1 0.399532 0.989892 0.5
183 1 0.0459756 0.897933 0.5
185 1 0.0931294 0.896973 0.5
187 1 0.144229 0.897491 0.5
189 1 0.193047 0.900351 0.5
191 1 0.248465 0.900406 0.5
193 1 0.298502 0.895893 0.5
195 1 0.350569 0.893169 0.5
197 1 0.403368 0.897268 0.5
199 1 0.451552 0.894571 0.5
182 1 0.0195693 0.947057 0.5
198 1 0.426994 0.946472 0.5
202 1 0.0427813 0.999731 0.5
184 1 0.0669606 0.946697 0.5
203 1 0.0934041 0.995676 0.5
186 1 0.11818 0.947092 0.5
188 1 0.168147 0.94946 0.5
107 1 0.1502 0.503928 0.5
105 1 0.0992189 0.500475 0.5
211 2 0.5 9.95618e-05 0.5
212 2 0.525 0.0498805 0.5
213 2 0.55 9.95618e-05 0.5
214 2 0.575 0.0498805 0.5
215 2 0.6 9.95618e-05 0.5
216 2 0.625 0.0498805 0.5
217 2 0.65 9.95618e-05 0.5
218 2 0.675 0.0498805 0.5
219 2 0.7 9.95618e-05 0.5
220 2 0.725 0.0498805 0.5
221 2 0.75 9.95618e-05 0.5
222 2 0.775 0.0498805 0.5
223 2 0.8 9.95618e-05 0.5
224 2 0.825 0.0498805 0.5
225 2 0.85 9.95618e-05 0.5
226 2 0.875 0.0498805 0.5
227 2 0.9 9.95618e-05 0.5
228 2 0.925 0.0498805 0.5
229 2 0.95 9.95618e-05 0.5
230 2 0.975 0.0498805 0.5
231 2 0.5 0.0996614 0.5
233 2 0.55 0.0996614 0.5
235 2 0.6 0.0996614 0.5
237 2 0.65 0.0996614 0.5
239 2 0.7 0.0996614 0.5
241 2 0.75 0.0996614 0.5
243 2 0.8 0.0996614 0.5
245 2 0.85 0.0996614 0.5
247 2 0.9 0.0996614 0.5
249 2 0.95 0.0996614 0.5
232 1 0.528344 0.148387 0.5
251 1 0.503801 0.199648 0.5
253 1 0.552869 0.200619 0.5
234 1 0.576421 0.14742 0.5
255 1 0.60337 0.199145 0.5
236 1 0.626794 0.149471 0.5
238 1 0.675546 0.14666 0.5
257 1 0.651498 0.198714 0.5
240 1 0.724044 0.146428 0.5
259 1 0.698762 0.197991 0.5
242 1 0.773217 0.150176 0.5
261 1 0.747591 0.201553 0.5
263 1 0.79711 0.200048 0.5
244 1 0.822596 0.148195 0.5
265 1 0.84697 0.199785 0.5
246 1 0.871003 0.150972 0.5
248 1 0.924651 0.151503 0.5
267 1 0.896065 0.199672 0.5
250 1 0.975519 0.150965 0.5
269 1 0.951509 0.198606 0.5
252 1 0.524946 0.250835 0.5
254 1 0.575299 0.252386 0.5
256 1 0.622817 0.248058 0.5
258 1 0.676919 0.249626 0.5
260 1 0.723256 0.248408 0.5
262 1 0.77207 0.24985 0.5
264 1 0.819648 0.250848 0.5
266 1 0.873129 0.248218 0.5
268 1 0.924495 0.248261 0.5
270 1 0.977879 0.247689 0.5
319 1 0.701157 0.498096 0.5
272 1 0.525314 0.351359 0.5
273 1 0.549144 0.300369 0.5
274 1 0.574867 0.349429 0.5
275 1 0.600752 0.299943 0.5
276 1 0.62632 0.352027 0.5
277 1 0.652945 0.300219 0.5
278 1 0.675451 0.350482 0.5
279 1 0.700453 0.300032 0.5
280 1 0.72683 0.34955 0.5
281 1 0.750146 0.299051 0.5
282 1 0.77651 0.352101 0.5
283 1 0.797424 0.301098 0.5
284 1 0.825917 0.345874 0.5
285 1 0.848358 0.298022 0.5
286 1 0.873585 0.344511 0.5
287 1 0.905007 0.299269 0.5
288 1 0.927045 0.348118 0.5
289 1 0.952837 0.293542 0.5
290 1 0.975831 0.347506 0.5
329 1 0.949391 0.494246 0.5
293 1 0.550861 0.398379 0.5
295 1 0.602985 0.402187 0.5
297 1 0.65385 0.403332 0.5
299 1 0.705109 0.398623 0.5
301 1 0.752801 0.405101 0.5
303 1 0.799955 0.401947 0.5
305 1 0.848652 0.396768 0.5
307 1 0.899827 0.394415 0.5
309 1 0.951792 0.396194 0.5
292 1 0.526708 0.445036 0.5
294 1 0.574804 0.448656 0.5
296 1 0.625163 0.451184 0.5
298 1 0.677279 0.451047 0.5
300 1 0.728074 0.452878 0.5
302 1 0.779386 0.452559 0.5
304 1 0.826879 0.450224 0.5
306 1 0.874174 0.443883 0.5
308 1 0.923141 0.445757 0.5
310 1 0.977842 0.447553 0.5
327 1 0.899886 0.493872 0.5
313 1 0.549085 0.497041 0.5
325 1 0.851241 0.498317 0.5
311 1 0.500447 0.495922 0.5
271 1 0.500286 0.301654 0.5
315 1 0.600148 0.497393 0.5
317 1 0.650275 0.496974 0.5
201 1 0.994088 0.997768 0.5
312 1 0.522383 0.543927 0.5
181 1 0.996782 0.895402 0.5
314 1 0.572593 0.545897 0.5
141 1 0.998745 0.697006 0.5
316 1 0.624117 0.552022 0.5
404 1 0.822762 0.945002 0.5
318 1 0.674043 0.546328 0.5
417 1 0.79834 0.996894 0.5
320 1 0.725391 0.546749 0.5
121 1 0.999809 0.599688 0.5
322 1 0.776199 0.550914 0.5
419 1 0.895333 0.999918 0.5
324 1 0.825809 0.551213 0.5
408 1 0.922151 0.94713 0.5
326 1 0.877501 0.54765 0.5
161 1 0.999444 0.79927 0.5
328 1 0.926287 0.543858 0.5
406 1 0.871358 0.944523 0.5
330 1 0.974961 0.544647 0.5
418 1 0.847965 0.993142 0.5
333 1 0.546972 0.594052 0.5
335 1 0.598821 0.597986 0.5
337 1 0.65022 0.599482 0.5
339 1 0.699356 0.59295 0.5
341 1 0.74951 0.594642 0.5
343 1 0.800557 0.5964 0.5
345 1 0.852318 0.598931 0.5
347 1 0.902318 0.596667 0.5
349 1 0.951541 0.594488 0.5
332 1 0.522707 0.64404 0.5
420 1 0.945098 0.999424 0.5
353 1 0.550819 0.692332 0.5
334 1 0.57393 0.645913 0.5
355 1 0.599855 0.692515 0.5
336 1 0.622352 0.644259 0.5
338 1 0.677112 0.646416 0.5
357 1 0.6508 0.693081 0.5
340 1 0.727276 0.645204 0.5
359 1 0.703949 0.694789 0.5
342 1 0.777138 0.64794 0.5
361 1 0.753803 0.696107 0.5
363 1 0.803054 0.697535 0.5
344 1 0.825003 0.645533 0.5
365 1 0.84914 0.695298 0.5
346 1 0.87484 0.647636 0.5
348 1 0.926034 0.646088 0.5
367 1 0.899397 0.694681 0.5
350 1 0.974309 0.646299 0.5
369 1 0.948628 0.694646 0.5
352 1 0.528493 0.744727 0.5
354 1 0.576819 0.744504 0.5
356 1 0.624854 0.74213 0.5
358 1 0.675173 0.743249 0.5
360 1 0.729015 0.746662 0.5
362 1 0.77748 0.744114 0.5
364 1 0.825569 0.748646 0.5
366 1 0.872586 0.747766 0.5
368 1 0.922136 0.745501 0.5
370 1 0.969733 0.74686 0.5
371 1 0.504016 0.795149 0.5
372 1 0.527197 0.843614 0.5
373 1 0.551591 0.794984 0.5
374 1 0.575239 0.843899 0.5
375 1 0.600029 0.795233 0.5
376 1 0.62398 0.843242 0.5
377 1 0.650606 0.791894 0.5
378 1 0.676023 0.841148 0.5
379 1 0.702074 0.790654 0.5
380 1 0.724871 0.843028 0.5
381 1 0.754406 0.793413 0.5
382 1 0.777087 0.845937 0.5
383 1 0.798742 0.795878 0.5
384 1 0.826515 0.845822 0.5
385 1 0.853892 0.79787 0.5
386 1 0.874934 0.848293 0.5
387 1 0.900242 0.79606 0.5
388 1 0.923396 0.845115 0.5
389 1 0.947994 0.79635 0.5
390 1 0.97241 0.846774 0.5
391 1 0.501521 0.896287 0.5
393 1 0.550198 0.893179 0.5
395 1 0.60373 0.891624 0.5
397 1 0.65259 0.891945 0.5
399 1 0.69911 0.894651 0.5
401 1 0.75056 0.893689 0.5
403 1 0.799863 0.896783 0.5
405 1 0.851314 0.895402 0.5
407 1 0.898636 0.897486 0.5
409 1 0.946132 0.897343 0.5
392 1 0.529605 0.94317 0.5
410 1 0.969795 0.947708 0.5
412 1 0.554578 0.995225 0.5
394 1 0.578877 0.940299 0.5
413 1 0.602751 0.989103 0.5
396 1 0.626925 0.940342 0.5
398 1 0.674104 0.943342 0.5
414 1 0.649572 0.995202 0.5
400 1 0.726828 0.941656 0.5
415 1 0.701873 0.991402 0.5
402 1 0.775248 0.941293 0.5
416 1 0.752685 0.987808 0.5
411 1 0.504663 0.990635 0.5
351 1 0.500316 0.693326 0.5
323 1 0.801217 0.503201 0.5
321 1 0.750812 0.500562 0.5
ITEM: TIMESTEP
500
ITEM: NUMBER OF ATOMS
420
ITEM: BOX BOUNDS pp ss pp
0.0000000000000000e+00 2.2653923264628304e+01
-1.9618873042551413e-03 1.9730153755777891e+01
-2.8317404080785380e-01 2.8317404080785380e-01
ITEM: ATOMS id type xs ys zs
1 2 0 9.94261e-05 0.5
2 2 0.025 0.0498125 0.5
3 2 0.05 9.94261e-05 0.5
4 2 0.075 0.0498125 0.5
5 2 0.1 9.94261e-05 0.5
6 2 0.125 0.0498125 0.5
7 2 0.15 9.94261e-05 0.5
8 2 0.175 0.0498125 0.5
9 2 0.2 9.94261e-05 0.5
10 2 0.225 0.0498125 0.5
11 2 0.25 9.94261e-05 0.5
12 2 0.275 0.0498125 0.5
13 2 0.3 9.94261e-05 0.5
14 2 0.325 0.0498125 0.5
15 2 0.35 9.94261e-05 0.5
16 2 0.375 0.0498125 0.5
17 2 0.4 9.94261e-05 0.5
18 2 0.425 0.0498125 0.5
19 2 0.45 9.94261e-05 0.5
20 2 0.475 0.0498125 0.5
21 2 0 0.0995255 0.5
23 2 0.05 0.0995255 0.5
25 2 0.1 0.0995255 0.5
27 2 0.15 0.0995255 0.5
29 2 0.2 0.0995255 0.5
31 2 0.25 0.0995255 0.5
33 2 0.3 0.0995255 0.5
35 2 0.35 0.0995255 0.5
37 2 0.4 0.0995255 0.5
39 2 0.45 0.0995255 0.5
22 1 0.0249528 0.151465 0.5
100 1 0.473272 0.449137 0.5
43 1 0.0512727 0.203186 0.5
24 1 0.0744578 0.151447 0.5
45 1 0.0989184 0.19832 0.5
26 1 0.123704 0.149083 0.5
28 1 0.172898 0.147249 0.5
47 1 0.148752 0.19571 0.5
30 1 0.226659 0.147885 0.5
49 1 0.197158 0.194607 0.5
32 1 0.275109 0.15018 0.5
51 1 0.247747 0.199495 0.5
53 1 0.300671 0.198983 0.5
34 1 0.325298 0.150313 0.5
55 1 0.346992 0.201465 0.5
36 1 0.374051 0.151697 0.5
38 1 0.421278 0.148275 0.5
57 1 0.396555 0.201276 0.5
40 1 0.472114 0.147722 0.5
59 1 0.446622 0.201222 0.5
42 1 0.0241912 0.24972 0.5
44 1 0.0750169 0.251204 0.5
46 1 0.125818 0.251111 0.5
48 1 0.174883 0.249907 0.5
50 1 0.223309 0.24736 0.5
52 1 0.273832 0.24833 0.5
54 1 0.323928 0.251016 0.5
56 1 0.372059 0.254455 0.5
58 1 0.422896 0.251409 0.5
60 1 0.470909 0.248592 0.5
98 1 0.426226 0.446162 0.5
62 1 0.0245636 0.348095 0.5
63 1 0.0501191 0.299263 0.5
64 1 0.0748143 0.34785 0.5
65 1 0.0982582 0.300135 0.5
66 1 0.122969 0.349183 0.5
67 1 0.149694 0.298569 0.5
68 1 0.173854 0.345504 0.5
69 1 0.200847 0.299495 0.5
70 1 0.223718 0.347598 0.5
71 1 0.250248 0.29634 0.5
72 1 0.273326 0.350394 0.5
73 1 0.297808 0.299954 0.5
74 1 0.319712 0.350002 0.5
75 1 0.344463 0.300186 0.5
76 1 0.372074 0.34752 0.5
77 1 0.400707 0.301673 0.5
78 1 0.426648 0.349474 0.5
79 1 0.451765 0.300397 0.5
80 1 0.477388 0.348575 0.5
96 1 0.377202 0.446014 0.5
83 1 0.0512241 0.395437 0.5
85 1 0.0996198 0.397673 0.5
87 1 0.148858 0.40195 0.5
89 1 0.199744 0.400582 0.5
91 1 0.250004 0.396797 0.5
93 1 0.298429 0.39997 0.5
95 1 0.349966 0.39555 0.5
97 1 0.399807 0.395239 0.5
99 1 0.451113 0.400087 0.5
82 1 0.0264277 0.44866 0.5
84 1 0.0744273 0.446687 0.5
86 1 0.122069 0.450096 0.5
88 1 0.173657 0.447418 0.5
90 1 0.225421 0.446647 0.5
92 1 0.2769 0.448602 0.5
94 1 0.326416 0.444744 0.5
105 1 0.0983936 0.498573 0.5
103 1 0.0515973 0.49575 0.5
107 1 0.151303 0.497569 0.5
61 1 -0.000842159 0.300621 0.5
81 1 0.00320571 0.400743 0.5
111 1 0.246362 0.495791 0.5
115 1 0.351954 0.497256 0.5
117 1 0.404 0.498614 0.5
101 1 0.00286241 0.49992 0.5
113 1 0.302652 0.497008 0.5
109 1 0.1999 0.494088 0.5
251 1 0.497439 0.196137 0.5
371 1 0.498149 0.792342 0.5
102 1 0.025973 0.548422 0.5
391 1 0.499112 0.893642 0.5
104 1 0.0746305 0.547936 0.5
196 1 0.376518 0.943592 0.5
106 1 0.12344 0.547227 0.5
208 1 0.349305 0.993497 0.5
108 1 0.175787 0.544627 0.5
194 1 0.326363 0.945021 0.5
110 1 0.225005 0.547094 0.5
204 1 0.149918 0.993163 0.5
112 1 0.274234 0.542025 0.5
207 1 0.303023 0.994871 0.5
114 1 0.326374 0.549056 0.5
206 1 0.249218 0.993613 0.5
116 1 0.374189 0.546969 0.5
192 1 0.276557 0.946832 0.5
118 1 0.425192 0.550711 0.5
205 1 0.198445 0.994788 0.5
120 1 0.476472 0.551417 0.5
210 1 0.450683 0.987574 0.5
123 1 0.0518308 0.597633 0.5
125 1 0.101776 0.594273 0.5
127 1 0.150091 0.594571 0.5
129 1 0.198654 0.596414 0.5
131 1 0.251117 0.593527 0.5
133 1 0.300128 0.594274 0.5
135 1 0.348955 0.597331 0.5
137 1 0.398457 0.597419 0.5
139 1 0.447966 0.599106 0.5
122 1 0.0271536 0.649892 0.5
200 1 0.477266 0.942652 0.5
143 1 0.048884 0.697937 0.5
124 1 0.0774108 0.643541 0.5
145 1 0.0969064 0.694746 0.5
126 1 0.124509 0.644807 0.5
128 1 0.172598 0.646225 0.5
147 1 0.148766 0.694499 0.5
130 1 0.22323 0.644578 0.5
149 1 0.199219 0.695922 0.5
132 1 0.27291 0.643837 0.5
151 1 0.248294 0.691107 0.5
153 1 0.298878 0.695399 0.5
134 1 0.321511 0.643903 0.5
155 1 0.348891 0.696862 0.5
136 1 0.373853 0.646651 0.5
138 1 0.424986 0.646595 0.5
157 1 0.396606 0.697489 0.5
140 1 0.473423 0.646263 0.5
159 1 0.447645 0.697129 0.5
142 1 0.0236657 0.745766 0.5
144 1 0.074106 0.746209 0.5
146 1 0.123841 0.748481 0.5
148 1 0.175787 0.744348 0.5
150 1 0.223777 0.746718 0.5
152 1 0.272188 0.745307 0.5
154 1 0.323457 0.74759 0.5
156 1 0.370807 0.744946 0.5
158 1 0.421305 0.745839 0.5
160 1 0.472891 0.746076 0.5
190 1 0.225113 0.943797 0.5
162 1 0.025405 0.843802 0.5
163 1 0.0488527 0.794104 0.5
164 1 0.0767156 0.845752 0.5
165 1 0.0990175 0.795151 0.5
166 1 0.124394 0.846055 0.5
167 1 0.151364 0.796495 0.5
168 1 0.175991 0.846912 0.5
169 1 0.199545 0.795545 0.5
170 1 0.227302 0.848146 0.5
171 1 0.247036 0.796382 0.5
172 1 0.273493 0.84507 0.5
173 1 0.295749 0.795252 0.5
174 1 0.323137 0.845807 0.5
175 1 0.347319 0.797501 0.5
176 1 0.372536 0.844976 0.5
177 1 0.397831 0.790984 0.5
178 1 0.421333 0.844047 0.5
179 1 0.447796 0.795337 0.5
180 1 0.471198 0.844387 0.5
209 1 0.400429 0.990595 0.5
183 1 0.0517274 0.896127 0.5
185 1 0.102235 0.896711 0.5
187 1 0.150463 0.893832 0.5
189 1 0.200565 0.897134 0.5
191 1 0.25036 0.896418 0.5
193 1 0.300036 0.89791 0.5
195 1 0.346795 0.893843 0.5
197 1 0.399965 0.892938 0.5
199 1 0.450222 0.891676 0.5
182 1 0.0245928 0.942221 0.5
198 1 0.425788 0.940835 0.5
202 1 0.0478491 0.992839 0.5
184 1 0.0735343 0.945358 0.5
203 1 0.0985018 0.999177 0.5
186 1 0.126103 0.94366 0.5
188 1 0.174243 0.945089 0.5
351 1 0.49775 0.696237 0.5
411 1 0.497841 0.99291 0.5
119 1 0.452938 0.503278 0.5
211 2 0.5 9.94261e-05 0.5
212 2 0.525 0.0498125 0.5
213 2 0.55 9.94261e-05 0.5
214 2 0.575 0.0498125 0.5
215 2 0.6 9.94261e-05 0.5
216 2 0.625 0.0498125 0.5
217 2 0.65 9.94261e-05 0.5
218 2 0.675 0.0498125 0.5
219 2 0.7 9.94261e-05 0.5
220 2 0.725 0.0498125 0.5
221 2 0.75 9.94261e-05 0.5
222 2 0.775 0.0498125 0.5
223 2 0.8 9.94261e-05 0.5
224 2 0.825 0.0498125 0.5
225 2 0.85 9.94261e-05 0.5
226 2 0.875 0.0498125 0.5
227 2 0.9 9.94261e-05 0.5
228 2 0.925 0.0498125 0.5
229 2 0.95 9.94261e-05 0.5
230 2 0.975 0.0498125 0.5
231 2 0.5 0.0995255 0.5
233 2 0.55 0.0995255 0.5
235 2 0.6 0.0995255 0.5
237 2 0.65 0.0995255 0.5
239 2 0.7 0.0995255 0.5
241 2 0.75 0.0995255 0.5
243 2 0.8 0.0995255 0.5
245 2 0.85 0.0995255 0.5
247 2 0.9 0.0995255 0.5
249 2 0.95 0.0995255 0.5
232 1 0.526783 0.149854 0.5
311 1 0.500973 0.499518 0.5
253 1 0.549877 0.197364 0.5
234 1 0.577982 0.147887 0.5
255 1 0.602475 0.19932 0.5
236 1 0.626899 0.147418 0.5
238 1 0.675401 0.14649 0.5
257 1 0.65318 0.195687 0.5
240 1 0.728284 0.148446 0.5
259 1 0.704254 0.1968 0.5
242 1 0.776615 0.150301 0.5
261 1 0.755252 0.197879 0.5
263 1 0.802568 0.198546 0.5
244 1 0.824846 0.1489 0.5
265 1 0.851665 0.19821 0.5
246 1 0.876018 0.148279 0.5
248 1 0.928849 0.14867 0.5
267 1 0.900297 0.198662 0.5
250 1 0.976653 0.149692 0.5
269 1 0.952762 0.20011 0.5
252 1 0.524686 0.246773 0.5
254 1 0.574736 0.246697 0.5
256 1 0.62574 0.246096 0.5
258 1 0.675552 0.24438 0.5
260 1 0.728455 0.244069 0.5
262 1 0.77988 0.24779 0.5
264 1 0.82792 0.248377 0.5
266 1 0.875793 0.245509 0.5
268 1 0.924929 0.248813 0.5
270 1 0.974868 0.248659 0.5
319 1 0.700731 0.493221 0.5
272 1 0.525906 0.347058 0.5
273 1 0.55057 0.299071 0.5
274 1 0.576606 0.345698 0.5
275 1 0.599949 0.293855 0.5
276 1 0.624747 0.344142 0.5
277 1 0.650216 0.298079 0.5
278 1 0.674506 0.348939 0.5
279 1 0.700967 0.292799 0.5
280 1 0.727555 0.347555 0.5
281 1 0.75443 0.295559 0.5
282 1 0.775578 0.347735 0.5
283 1 0.804743 0.296233 0.5
284 1 0.827462 0.34591 0.5
285 1 0.853149 0.298454 0.5
286 1 0.879563 0.34554 0.5
287 1 0.903819 0.298872 0.5
288 1 0.927053 0.350273 0.5
289 1 0.95087 0.299899 0.5
290 1 0.977744 0.352858 0.5
329 1 0.951265 0.496882 0.5
293 1 0.550419 0.395549 0.5
295 1 0.59886 0.39569 0.5
297 1 0.646776 0.39596 0.5
299 1 0.700018 0.393814 0.5
301 1 0.750138 0.397029 0.5
303 1 0.800518 0.397342 0.5
305 1 0.850208 0.395743 0.5
307 1 0.899641 0.396224 0.5
309 1 0.952239 0.401107 0.5
292 1 0.522926 0.444711 0.5
294 1 0.571692 0.445475 0.5
296 1 0.622292 0.448555 0.5
298 1 0.673721 0.443754 0.5
300 1 0.722992 0.442896 0.5