ITEM: TIMESTEP
0
ITEM: NUMBER OF ATOMS
420
ITEM: BOX BOUNDS pp ss pp
0.0000000000000000e+00 2.2653923264628304e+01
-1.9618873042551413e-03 1.9620834929855668e+01
-2.8317404080785380e-01 2.8317404080785380e-01
ITEM: ATOMS id type xs ys zs
1 2 0 9.998e-05 0.5
2 2 0.025 0.05009 0.5
3 2 0.05 9.998e-05 0.5
4 2 0.075 0.05009 0.5
5 2 0.1 9.998e-05 0.5
6 2 0.125 0.05009 0.5
7 2 0.15 9.998e-05 0.5
8 2 0.175 0.05009 0.5
9 2 0.2 9.998e-05 0.5
10 2 0.225 0.05009 0.5
11 2 0.25 9.998e-05 0.5
12 2 0.275 0.05009 0.5
13 2 0.3 9.998e-05 0.5
14 2 0.325 0.05009 0.5
15 2 0.35 9.998e-05 0.5
16 2 0.375 0.05009 0.5
17 2 0.4 9.998e-05 0.5
18 2 0.425 0.05009 0.5
19 2 0.45 9.998e-05 0.5
20 2 0.475 0.05009 0.5
21 2 0 0.10008 0.5
23 2 0.05 0.10008 0.5
25 2 0.1 0.10008 0.5
27 2 0.15 0.10008 0.5
29 2 0.2 0.10008 0.5
31 2 0.25 0.10008 0.5
33 2 0.3 0.10008 0.5
35 2 0.35 0.10008 0.5
37 2 0.4 0.10008 0.5
39 2 0.45 0.10008 0.5
22 1 0.025 0.15007 0.5
41 1 0 0.20006 0.5
43 1 0.05 0.20006 0.5
24 1 0.075 0.15007 0.5
45 1 0.1 0.20006 0.5
26 1 0.125 0.15007 0.5
28 1 0.175 0.15007 0.5
47 1 0.15 0.20006 0.5
30 1 0.225 0.15007 0.5
49 1 0.2 0.20006 0.5
32 1 0.275 0.15007 0.5
51 1 0.25 0.20006 0.5
53 1 0.3 0.20006 0.5
34 1 0.325 0.15007 0.5
55 1 0.35 0.20006 0.5
36 1 0.375 0.15007 0.5
38 1 0.425 0.15007 0.5
57 1 0.4 0.20006 0.5
40 1 0.475 0.15007 0.5
59 1 0.45 0.20006 0.5
42 1 0.025 0.25005 0.5
44 1 0.075 0.25005 0.5
46 1 0.125 0.25005 0.5
48 1 0.175 0.25005 0.5
50 1 0.225 0.25005 0.5
52 1 0.275 0.25005 0.5
54 1 0.325 0.25005 0.5
56 1 0.375 0.25005 0.5
58 1 0.425 0.25005 0.5
60 1 0.475 0.25005 0.5
61 1 0 0.30004 0.5
62 1 0.025 0.35003 0.5
63 1 0.05 0.30004 0.5
64 1 0.075 0.35003 0.5
65 1 0.1 0.30004 0.5
66 1 0.125 0.35003 0.5
67 1 0.15 0.30004 0.5
68 1 0.175 0.35003 0.5
69 1 0.2 0.30004 0.5
70 1 0.225 0.35003 0.5
71 1 0.25 0.30004 0.5
72 1 0.275 0.35003 0.5
73 1 0.3 0.30004 0.5
74 1 0.325 0.35003 0.5
75 1 0.35 0.30004 0.5
76 1 0.375 0.35003 0.5
77 1 0.4 0.30004 0.5
78 1 0.425 0.35003 0.5
79 1 0.45 0.30004 0.5
80 1 0.475 0.35003 0.5
81 1 0 0.40002 0.5
83 1 0.05 0.40002 0.5
85 1 0.1 0.40002 0.5
87 1 0.15 0.40002 0.5
89 1 0.2 0.40002 0.5
91 1 0.25 0.40002 0.5
93 1 0.3 0.40002 0.5
95 1 0.35 0.40002 0.5
97 1 0.4 0.40002 0.5
99 1 0.45 0.40002 0.5
82 1 0.025 0.45001 0.5
84 1 0.075 0.45001 0.5
86 1 0.125 0.45001 0.5
88 1 0.175 0.45001 0.5
90 1 0.225 0.45001 0.5
92 1 0.275 0.45001 0.5
94 1 0.325 0.45001 0.5
96 1 0.375 0.45001 0.5
98 1 0.425 0.45001 0.5
100 1 0.475 0.45001 0.5
101 1 0 0.5 0.5
102 1 0.025 0.54999 0.5
103 1 0.05 0.5 0.5
104 1 0.075 0.54999 0.5
105 1 0.1 0.5 0.5
106 1 0.125 0.54999 0.5
107 1 0.15 0.5 0.5
108 1 0.175 0.54999 0.5
109 1 0.2 0.5 0.5
110 1 0.225 0.54999 0.5
111 1 0.25 0.5 0.5
112 1 0.275 0.54999 0.5
113 1 0.3 0.5 0.5
114 1 0.325 0.54999 0.5
115 1 0.35 0.5 0.5
116 1 0.375 0.54999 0.5
117 1 0.4 0.5 0.5
118 1 0.425 0.54999 0.5
119 1 0.45 0.5 0.5
120 1 0.475 0.54999 0.5
121 1 0 0.59998 0.5
123 1 0.05 0.59998 0.5
125 1 0.1 0.59998 0.5
127 1 0.15 0.59998 0.5
129 1 0.2 0.59998 0.5
131 1 0.25 0.59998 0.5
133 1 0.3 0.59998 0.5
135 1 0.35 0.59998 0.5
137 1 0.4 0.59998 0.5
139 1 0.45 0.59998 0.5
122 1 0.025 0.64997 0.5
141 1 0 0.69996 0.5
143 1 0.05 0.69996 0.5
124 1 0.075 0.64997 0.5
145 1 0.1 0.69996 0.5
126 1 0.125 0.64997 0.5
128 1 0.175 0.64997 0.5
147 1 0.15 0.69996 0.5
130 1 0.225 0.64997 0.5
149 1 0.2 0.69996 0.5
132 1 0.275 0.64997 0.5
151 1 0.25 0.69996 0.5
153 1 0.3 0.69996 0.5
134 1 0.325 0.64997 0.5
155 1 0.35 0.69996 0.5
136 1 0.375 0.64997 0.5
138 1 0.425 0.64997 0.5
157 1 0.4 0.69996 0.5
140 1 0.475 0.64997 0.5
159 1 0.45 0.69996 0.5
142 1 0.025 0.74995 0.5
144 1 0.075 0.74995 0.5
146 1 0.125 0.74995 0.5
148 1 0.175 0.74995 0.5
150 1 0.225 0.74995 0.5
152 1 0.275 0.74995 0.5
154 1 0.325 0.74995 0.5
156 1 0.375 0.74995 0.5
158 1 0.425 0.74995 0.5
160 1 0.475 0.74995 0.5
161 1 0 0.79994 0.5
162 1 0.025 0.84993 0.5
163 1 0.05 0.79994 0.5
164 1 0.075 0.84993 0.5
165 1 0.1 0.79994 0.5
166 1 0.125 0.84993 0.5
167 1 0.15 0.79994 0.5
168 1 0.175 0.84993 0.5
169 1 0.2 0.79994 0.5
170 1 0.225 0.84993 0.5
171 1 0.25 0.79994 0.5
172 1 0.275 0.84993 0.5
173 1 0.3 0.79994 0.5
174 1 0.325 0.84993 0.5
175 1 0.35 0.79994 0.5
176 1 0.375 0.84993 0.5
177 1 0.4 0.79994 0.5
178 1 0.425 0.84993 0.5
179 1 0.45 0.79994 0.5
180 1 0.475 0.84993 0.5
181 1 0 0.89992 0.5
183 1 0.05 0.89992 0.5
185 1 0.1 0.89992 0.5
187 1 0.15 0.89992 0.5
189 1 0.2 0.89992 0.5
191 1 0.25 0.89992 0.5
193 1 0.3 0.89992 0.5
195 1 0.35 0.89992 0.5
197 1 0.4 0.89992 0.5
199 1 0.45 0.89992 0.5
182 1 0.025 0.94991 0.5
201 1 0 0.9999 0.5
202 1 0.05 0.9999 0.5
184 1 0.075 0.94991 0.5
203 1 0.1 0.9999 0.5
186 1 0.125 0.94991 0.5
188 1 0.175 0.94991 0.5
204 1 0.15 0.9999 0.5
190 1 0.225 0.94991 0.5
205 1 0.2 0.9999 0.5
192 1 0.275 0.94991 0.5
206 1 0.25 0.9999 0.5
207 1 0.3 0.9999 0.5
194 1 0.325 0.94991 0.5
208 1 0.35 0.9999 0.5
196 1 0.375 0.94991 0.5
198 1 0.425 0.94991 0.5
209 1 0.4 0.9999 0.5
200 1 0.475 0.94991 0.5
210 1 0.45 0.9999 0.5
211 2 0.5 9.998e-05 0.5
212 2 0.525 0.05009 0.5
213 2 0.55 9.998e-05 0.5
214 2 0.575 0.05009 0.5
215 2 0.6 9.998e-05 0.5
216 2 0.625 0.05009 0.5
217 2 0.65 9.998e-05 0.5
218 2 0.675 0.05009 0.5
219 2 0.7 9.998e-05 0.5
220 2 0.725 0.05009 0.5
221 2 0.75 9.998e-05 0.5
222 2 0.775 0.05009 0.5
223 2 0.8 9.998e-05 0.5
224 2 0.825 0.05009 0.5
225 2 0.85 9.998e-05 0.5
226 2 0.875 0.05009 0.5
227 2 0.9 9.998e-05 0.5
228 2 0.925 0.05009 0.5
229 2 0.95 9.998e-05 0.5
230 2 0.975 0.05009 0.5
231 2 0.5 0.10008 0.5
233 2 0.55 0.10008 0.5
235 2 0.6 0.10008 0.5
237 2 0.65 0.10008 0.5
239 2 0.7 0.10008 0.5
241 2 0.75 0.10008 0.5
243 2 0.8 0.10008 0.5
245 2 0.85 0.10008 0.5
247 2 0.9 0.10008 0.5
249 2 0.95 0.10008 0.5
232 1 0.525 0.15007 0.5
251 1 0.5 0.20006 0.5
253 1 0.55 0.20006 0.5
234 1 0.575 0.15007 0.5
255 1 0.6 0.20006 0.5
236 1 0.625 0.15007 0.5
238 1 0.675 0.15007 0.5
257 1 0.65 0.20006 0.5
240 1 0.725 0.15007 0.5
259 1 0.7 0.20006 0.5
242 1 0.775 0.15007 0.5
261 1 0.75 0.20006 0.5
263 1 0.8 0.20006 0.5
244 1 0.825 0.15007 0.5
265 1 0.85 0.20006 0.5
246 1 0.875 0.15007 0.5
248 1 0.925 0.15007 0.5
267 1 0.9 0.20006 0.5
250 1 0.975 0.15007 0.5
269 1 0.95 0.20006 0.5
252 1 0.525 0.25005 0.5
254 1 0.575 0.25005 0.5
256 1 0.625 0.25005 0.5
258 1 0.675 0.25005 0.5
260 1 0.725 0.25005 0.5
262 1 0.775 0.25005 0.5
264 1 0.825 0.25005 0.5
266 1 0.875 0.25005 0.5
268 1 0.925 0.25005 0.5
270 1 0.975 0.25005 0.5
271 1 0.5 0.30004 0.5
272 1 0.525 0.35003 0.5
273 1 0.55 0.30004 0.5
274 1 0.575 0.35003 0.5
275 1 0.6 0.30004 0.5
276 1 0.625 0.35003 0.5
277 1 0.65 0.30004 0.5
278 1 0.675 0.35003 0.5
279 1 0.7 0.30004 0.5
280 1 0.725 0.35003 0.5
281 1 0.75 0.30004 0.5
282 1 0.775 0.35003 0.5
283 1 0.8 0.30004 0.5
284 1 0.825 0.35003 0.5
285 1 0.85 0.30004 0.5
286 1 0.875 0.35003 0.5
287 1 0.9 0.30004 0.5
288 1 0.925 0.35003 0.5
289 1 0.95 0.30004 0.5
290 1 0.975 0.35003 0.5
291 1 0.5 0.40002 0.5
293 1 0.55 0.40002 0.5
295 1 0.6 0.40002 0.5
297 1 0.65 0.40002 0.5
299 1 0.7 0.40002 0.5
301 1 0.75 0.40002 0.5
303 1 0.8 0.40002 0.5
305 1 0.85 0.40002 0.5
307 1 0.9 0.40002 0.5
309 1 0.95 0.40002 0.5
292 1 0.525 0.45001 0.5
294 1 0.575 0.45001 0.5
296 1 0.625 0.45001 0.5
298 1 0.675 0.45001 0.5
300 1 0.725 0.45001 0.5
302 1 0.775 0.45001 0.5
304 1 0.825 0.45001 0.5
306 1 0.875 0.45001 0.5
308 1 0.925 0.45001 0.5
310 1 0.975 0.45001 0.5
311 1 0.5 0.5 0.5
312 1 0.525 0.54999 0.5
313 1 0.55 0.5 0.5
314 1 0.575 0.54999 0.5
315 1 0.6 0.5 0.5
316 1 0.625 0.54999 0.5
317 1 0.65 0.5 0.5
318 1 0.675 0.54999 0.5
319 1 0.7 0.5 0.5
320 1 0.725 0.54999 0.5
321 1 0.75 0.5 0.5
322 1 0.775 0.54999 0.5
323 1 0.8 0.5 0.5
324 1 0.825 0.54999 0.5
325 1 0.85 0.5 0.5
326 1 0.875 0.54999 0.5
327 1 0.9 0.5 0.5
328 1 0.925 0.54999 0.5
329 1 0.95 0.5 0.5
330 1 0.975 0.54999 0.5
331 1 0.5 0.59998 0.5
333 1 0.55 0.59998 0.5
335 1 0.6 0.59998 0.5
337 1 0.65 0.59998 0.5
339 1 0.7 0.59998 0.5
341 1 0.75 0.59998 0.5
343 1 0.8 0.59998 0.5
345 1 0.85 0.59998 0.5
347 1 0.9 0.59998 0.5
349 1 0.95 0.59998 0.5
332 1 0.525 0.64997 0.5
351 1 0.5 0.69996 0.5
353 1 0.55 0.69996 0.5
334 1 0.575 0.64997 0.5
355 1 0.6 0.69996 0.5
336 1 0.625 0.64997 0.5
338 1 0.675 0.64997 0.5
357 1 0.65 0.69996 0.5
340 1 0.725 0.64997 0.5
359 1 0.7 0.69996 0.5
342 1 0.775 0.64997 0.5
361 1 0.75 0.69996 0.5
363 1 0.8 0.69996 0.5
344 1 0.825 0.64997 0.5
365 1 0.85 0.69996 0.5
346 1 0.875 0.64997 0.5
348 1 0.925 0.64997 0.5
367 1 0.9 0.69996 0.5
350 1 0.975 0.64997 0.5
369 1 0.95 0.69996 0.5
352 1 0.525 0.74995 0.5
354 1 0.575 0.74995 0.5
356 1 0.625 0.74995 0.5
358 1 0.675 0.74995 0.5
360 1 0.725 0.74995 0.5
362 1 0.775 0.74995 0.5
364 1 0.825 0.74995 0.5
366 1 0.875 0.74995 0.5
368 1 0.925 0.74995 0.5
370 1 0.975 0.74995 0.5
371 1 0.5 0.79994 0.5
372 1 0.525 0.84993 0.5
373 1 0.55 0.79994 0.5
374 1 0.575 0.84993 0.5
375 1 0.6 0.79994 0.5
376 1 0.625 0.84993 0.5
377 1 0.65 0.79994 0.5
378 1 0.675 0.84993 0.5
379 1 0.7 0.79994 0.5
380 1 0.725 0.84993 0.5
381 1 0.75 0.79994 0.5
382 1 0.775 0.84993 0.5
383 1 0.8 0.79994 0.5
384 1 0.825 0.84993 0.5
385 1 0.85 0.79994 0.5
386 1 0.875 0.84993 0.5
387 1 0.9 0.79994 0.5
388 1 0.925 0.84993 0.5
389 1 0.95 0.79994 0.5
390 1 0.975 0.84993 0.5
391 1 0.5 0.89992 0.5
393 1 0.55 0.89992 0.5
395 1 0.6 0.89992 0.5
397 1 0.65 0.89992 0.5
399 1 0.7 0.89992 0.5
401 1 0.75 0.89992 0.5
403 1 0.8 0.89992 0.5
405 1 0.85 0.89992 0.5
407 1 0.9 0.89992 0.5
409 1 0.95 0.89992 0.5
392 1 0.525 0.94991 0.5
411 1 0.5 0.9999 0.5
412 1 0.55 0.9999 0.5
394 1 0.575 0.94991 0.5
413 1 0.6 0.9999 0.5
396 1 0.625 0.94991 0.5
398 1 0.675 0.94991 0.5
414 1 0.65 0.9999 0.5
400 1 0.725 0.94991 0.5
415 1 0.7 0.9999 0.5
402 1 0.775 0.94991 0.5
416 1 0.75 0.9999 0.5
417 1 0.8 0.9999 0.5
404 1 0.825 0.94991 0.5
418 1 0.85 0.9999 0.5
406 1 0.875 0.94991 0.5
408 1 0.925 0.94991 0.5
419 1 0.9 0.9999 0.5
410 1 0.975 0.94991 0.5
420 1 0.95 0.9999 0.5
ITEM: TIMESTEP
250
ITEM: NUMBER OF ATOMS
420
ITEM: BOX BOUNDS pp ss pp
0.0000000000000000e+00 2.2653923264628304e+01
-1.9618873042551413e-03 1.9804136132208722e+01
-2.8317404080785380e-01 2.8317404080785380e-01
ITEM: ATOMS id type xs ys zs
1 2 0 9.90547e-05 0.5
2 2 0.025 0.0496264 0.5
3 2 0.05 9.90547e-05 0.5
4 2 0.075 0.0496264 0.5
5 2 0.1 9.90547e-05 0.5
6 2 0.125 0.0496264 0.5
7 2 0.15 9.90547e-05 0.5
8 2 0.175 0.0496264 0.5
9 2 0.2 9.90547e-05 0.5
10 2 0.225 0.0496264 0.5
11 2 0.25 9.90547e-05 0.5
12 2 0.275 0.0496264 0.5
13 2 0.3 9.90547e-05 0.5
14 2 0.325 0.0496264 0.5
15 2 0.35 9.90547e-05 0.5
16 2 0.375 0.0496264 0.5
17 2 0.4 9.90547e-05 0.5
18 2 0.425 0.0496264 0.5
19 2 0.45 9.90547e-05 0.5
20 2 0.475 0.0496264 0.5
21 2 0 0.0991538 0.5
23 2 0.05 0.0991538 0.5
25 2 0.1 0.0991538 0.5
27 2 0.15 0.0991538 0.5
29 2 0.2 0.0991538 0.5
31 2 0.25 0.0991538 0.5
33 2 0.3 0.0991538 0.5
35 2 0.35 0.0991538 0.5
37 2 0.4 0.0991538 0.5
39 2 0.45 0.0991538 0.5
22 1 0.0268931 0.147653 0.5
100 1 0.473997 0.443315 0.5
43 1 0.0518965 0.1967 0.5
24 1 0.0757778 0.149978 0.5
45 1 0.101824 0.194036 0.5
26 1 0.124397 0.147154 0.5
28 1 0.17814 0.147684 0.5
47 1 0.150994 0.196951 0.5
30 1 0.2299 0.150691 0.5
49 1 0.199402 0.198138 0.5
32 1 0.276597 0.150237 0.5
51 1 0.249136 0.201079 0.5
53 1 0.302876 0.199412 0.5
34 1 0.326779 0.147509 0.5
55 1 0.35386 0.194596 0.5
36 1 0.375863 0.144951 0.5
38 1 0.425645 0.145065 0.5
57 1 0.402678 0.193363 0.5
40 1 0.478272 0.150076 0.5
59 1 0.449628 0.192327 0.5
42 1 0.025546 0.244419 0.5
44 1 0.0732005 0.245396 0.5
46 1 0.123518 0.247286 0.5
48 1 0.172702 0.245259 0.5
50 1 0.2245 0.250631 0.5
52 1 0.280288 0.246297 0.5
54 1 0.330197 0.246951 0.5
56 1 0.378191 0.244085 0.5
58 1 0.427818 0.243674 0.5
60 1 0.475731 0.247755 0.5
98 1 0.423458 0.446336 0.5
62 1 0.0247167 0.341915 0.5
63 1 0.048803 0.292254 0.5
64 1 0.0748044 0.345232 0.5
65 1 0.101899 0.295898 0.5
66 1 0.125058 0.348658 0.5
67 1 0.150125 0.297486 0.5
68 1 0.173777 0.348978 0.5
69 1 0.19994 0.298559 0.5
70 1 0.226855 0.345488 0.5
71 1 0.255082 0.294787 0.5
72 1 0.276876 0.34813 0.5
73 1 0.30369 0.29582 0.5
74 1 0.326791 0.348311 0.5
75 1 0.352567 0.29457 0.5
76 1 0.376824 0.341663 0.5
77 1 0.400434 0.293588 0.5
78 1 0.423064 0.348121 0.5
79 1 0.449759 0.294673 0.5
80 1 0.474344 0.347374 0.5
96 1 0.371883 0.448992 0.5
83 1 0.0529482 0.390892 0.5
85 1 0.107875 0.39791 0.5
87 1 0.154451 0.402911 0.5
89 1 0.201969 0.394578 0.5
91 1 0.253114 0.396935 0.5
93 1 0.300087 0.399058 0.5
95 1 0.348169 0.398247 0.5
97 1 0.397313 0.395941 0.5
99 1 0.448532 0.398231 0.5
82 1 0.0283386 0.441611 0.5
84 1 0.0791324 0.444076 0.5
86 1 0.128284 0.453863 0.5
88 1 0.17706 0.452039 0.5
90 1 0.223928 0.44343 0.5
92 1 0.276161 0.449199 0.5
94 1 0.323197 0.448539 0.5
41 1 0.000811653 0.19584 0.5
103 1 0.0511175 0.493089 0.5
105 1 0.0988678 0.498259 0.5
61 1 0.00226051 0.296543 0.5
291 1 0.498298 0.397481 0.5
101 1 0.00239961 0.492336 0.5
115 1 0.349141 0.498278 0.5
117 1 0.39998 0.493736 0.5
119 1 0.44908 0.495422 0.5
81 1 0.00216598 0.392061 0.5
111 1 0.248003 0.496585 0.5
113 1 0.297677 0.496167 0.5
204 1 0.146823 0.997207 0.5
102 1 0.0245594 0.544683 0.5
331 1 0.496307 0.590152 0.5
104 1 0.0735265 0.5434 0.5
196 1 0.374678 0.937668 0.5
106 1 0.123128 0.549664 0.5
208 1 0.350229 0.991223 0.5
108 1 0.176057 0.550738 0.5
194 1 0.325113 0.939898 0.5
110 1 0.223853 0.549844 0.5
109 1 0.199032 0.501212 0.5
112 1 0.271049 0.545132 0.5
207 1 0.297032 0.993492 0.5
114 1 0.325939 0.547779 0.5
206 1 0.245949 0.985321 0.5
116 1 0.374702 0.541392 0.5
192 1 0.276319 0.943512 0.5
118 1 0.424399 0.54367 0.5
205 1 0.200794 0.993359 0.5
120 1 0.475436 0.54147 0.5
210 1 0.450588 0.993539 0.5
123 1 0.048063 0.594493 0.5
125 1 0.097998 0.593902 0.5
127 1 0.15062 0.597055 0.5
129 1 0.198441 0.601507 0.5
131 1 0.248504 0.598986 0.5
133 1 0.297866 0.592802 0.5
135 1 0.348967 0.594824 0.5
137 1 0.398449 0.593604 0.5
139 1 0.448139 0.591861 0.5
122 1 0.0240649 0.645604 0.5
200 1 0.480988 0.938863 0.5
143 1 0.0486712 0.694289 0.5
124 1 0.0748398 0.64465 0.5
145 1 0.0985945 0.694549 0.5
126 1 0.121254 0.646125 0.5
128 1 0.172378 0.648422 0.5
147 1 0.145769 0.698893 0.5
130 1 0.222381 0.650677 0.5
149 1 0.193909 0.695057 0.5
132 1 0.276233 0.646065 0.5
151 1 0.25176 0.695944 0.5
153 1 0.301116 0.697498 0.5
134 1 0.324195 0.642866 0.5
155 1 0.351767 0.697832 0.5
136 1 0.376711 0.643653 0.5
138 1 0.424904 0.642998 0.5
157 1 0.40029 0.69431 0.5
140 1 0.472561 0.636914 0.5
159 1 0.451302 0.69161 0.5
142 1 0.0244938 0.74241 0.5
144 1 0.0745794 0.742794 0.5
146 1 0.121089 0.746505 0.5
148 1 0.172805 0.748988 0.5
150 1 0.223036 0.742112 0.5
152 1 0.273542 0.748952 0.5
154 1 0.328154 0.748221 0.5
156 1 0.379981 0.742292 0.5
158 1 0.429627 0.74039 0.5
160 1 0.481119 0.738874 0.5
190 1 0.21992 0.941197 0.5
162 1 0.0219331 0.844194 0.5
163 1 0.0468887 0.792376 0.5
164 1 0.0719185 0.841992 0.5
165 1 0.0960424 0.791447 0.5
166 1 0.119677 0.845957 0.5
167 1 0.146149 0.796765 0.5
168 1 0.170956 0.848303 0.5
169 1 0.195261 0.798742 0.5
170 1 0.219209 0.84965 0.5
171 1 0.245673 0.793989 0.5
172 1 0.268681 0.845541 0.5
173 1 0.301119 0.795218 0.5
174 1 0.321019 0.843303 0.5
175 1 0.354419 0.79695 0.5
176 1 0.377702 0.84752 0.5
177 1 0.407091 0.790168 0.5
178 1 0.430707 0.83938 0.5
179 1 0.457684 0.790554 0.5
180 1 0.477413 0.840794 0.5
209 1 0.398465 0.985471 0.5
183 1 0.0461885 0.895886 0.5
185 1 0.0936063 0.89387 0.5
187 1 0.144075 0.893887 0.5
189 1 0.192411 0.89743 0.5
191 1 0.248027 0.896846 0.5
193 1 0.298182 0.893678 0.5
195 1 0.350034 0.891362 0.5
197 1 0.404627 0.8929 0.5
199 1 0.451615 0.891888 0.5
182 1 0.0194707 0.944579 0.5
198 1 0.425499 0.94192 0.5
202 1 0.0410029 0.996774 0.5
184 1 0.0669078 0.946756 0.5
203 1 0.0902625 0.996732 0.5
186 1 0.11775 0.944308 0.5
188 1 0.168288 0.947541 0.5
107 1 0.150261 0.501771 0.5
211 2 0.5 9.90547e-05 0.5
212 2 0.525 0.0496264 0.5
213 2 0.55 9.90547e-05 0.5
214 2 0.575 0.0496264 0.5
215 2 0.6 9.90547e-05 0.5
216 2 0.625 0.0496264 0.5
217 2 0.65 9.90547e-05 0.5
218 2 0.675 0.0496264 0.5
219 2 0.7 9.90547e-05 0.5
220 2 0.725 0.0496264 0.5
221 2 0.75 9.90547e-05 0.5
222 2 0.775 0.0496264 0.5
223 2 0.8 9.90547e-05 0.5
224 2 0.825 0.0496264 0.5
225 2 0.85 9.90547e-05 0.5
226 2 0.875 0.0496264 0.5
227 2 0.9 9.90547e-05 0.5
228 2 0.925 0.0496264 0.5
229 2 0.95 9.90547e-05 0.5
230 2 0.975 0.0496264 0.5
231 2 0.5 0.0991538 0.5
233 2 0.55 0.0991538 0.5
235 2 0.6 0.0991538 0.5
237 2 0.65 0.0991538 0.5
239 2 0.7 0.0991538 0.5
241 2 0.75 0.0991538 0.5
243 2 0.8 0.0991538 0.5
245 2 0.85 0.0991538 0.5
247 2 0.9 0.0991538 0.5
249 2 0.95 0.0991538 0.5
232 1 0.528067 0.147987 0.5
251 1 0.503956 0.199022 0.5
253 1 0.552996 0.200234 0.5
234 1 0.577257 0.146275 0.5
255 1 0.603468 0.198249 0.5
236 1 0.627181 0.147685 0.5
238 1 0.675129 0.146048 0.5
257 1 0.651301 0.198112 0.5
240 1 0.724393 0.144788 0.5
259 1 0.69914 0.196837 0.5
242 1 0.772508 0.149097 0.5
261 1 0.747849 0.200012 0.5
263 1 0.797124 0.198234 0.5
244 1 0.822058 0.147912 0.5
265 1 0.846119 0.197925 0.5
246 1 0.870552 0.150832 0.5
248 1 0.924601 0.150396 0.5
267 1 0.895522 0.198703 0.5
250 1 0.974657 0.149654 0.5
269 1 0.950973 0.197222 0.5
252 1 0.524436 0.249729 0.5
254 1 0.575956 0.250575 0.5
256 1 0.623288 0.246489 0.5
258 1 0.676938 0.248828 0.5
260 1 0.723472 0.247331 0.5
262 1 0.771657 0.248401 0.5
264 1 0.819084 0.249838 0.5
266 1 0.873194 0.248537 0.5
268 1 0.924693 0.247809 0.5
270 1 0.97762 0.245315 0.5
317 1 0.65054 0.494764 0.5
272 1 0.525606 0.349229 0.5
273 1 0.550045 0.298805 0.5
274 1 0.575527 0.347986 0.5
275 1 0.600785 0.298478 0.5
276 1 0.626513 0.350709 0.5
277 1 0.653007 0.299528 0.5
278 1 0.675051 0.349097 0.5
279 1 0.700073 0.297795 0.5
280 1 0.726043 0.34748 0.5
281 1 0.750379 0.298061 0.5
282 1 0.777855 0.35054 0.5
283 1 0.797089 0.299742 0.5
284 1 0.825869 0.343985 0.5
285 1 0.847227 0.296377 0.5
286 1 0.874337 0.342277 0.5
287 1 0.905225 0.297932 0.5
288 1 0.927966 0.346599 0.5
289 1 0.953346 0.292228 0.5
290 1 0.975848 0.345467 0.5
327 1 0.90039 0.491344 0.5
293 1 0.5514 0.395776 0.5
295 1 0.60414 0.399763 0.5
297 1 0.653474 0.402682 0.5
299 1 0.705587 0.397765 0.5
301 1 0.753199 0.404111 0.5
303 1 0.799309 0.401099 0.5
305 1 0.848755 0.3946 0.5
307 1 0.899437 0.39146 0.5
309 1 0.952458 0.394633 0.5
292 1 0.526826 0.4424 0.5
294 1 0.575111 0.446026 0.5
296 1 0.625048 0.449794 0.5
298 1 0.67753 0.448557 0.5
300 1 0.728377 0.451137 0.5
302 1 0.779743 0.450582 0.5
304 1 0.827136 0.448701 0.5
306 1 0.873819 0.441535 0.5
308 1 0.923848 0.44347 0.5
310 1 0.977554 0.445358 0.5
319 1 0.701633 0.495815 0.5
311 1 0.50046 0.492325 0.5
329 1 0.94946 0.491532 0.5
325 1 0.851667 0.495522 0.5
313 1 0.548488 0.494845 0.5
315 1 0.599911 0.495115 0.5
321 1 0.75068 0.499199 0.5
271 1 0.50122 0.301479 0.5
201 1 0.993334 0.993436 0.5
312 1 0.521429 0.540284 0.5
181 1 0.995966 0.891797 0.5
314 1 0.572595 0.543482 0.5
351 1 0.500795 0.689874 0.5
316 1 0.625219 0.549638 0.5
417 1 0.798013 0.990623 0.5
318 1 0.673915 0.543036 0.5
418 1 0.848543 0.996366 0.5
320 1 0.725779 0.543209 0.5
121 1 1.00006 0.595202 0.5
322 1 0.776625 0.547158 0.5
419 1 0.895925 0.997574 0.5
324 1 0.826105 0.547657 0.5
408 1 0.919781 0.947565 0.5
326 1 0.876985 0.544759 0.5
161 1 0.99873 0.79568 0.5
328 1 0.926634 0.540897 0.5
406 1 0.87024 0.943949 0.5
330 1 0.976109 0.541021 0.5
404 1 0.822555 0.939898 0.5
333 1 0.545123 0.5895 0.5
335 1 0.597567 0.59366 0.5
337 1 0.650014 0.596456 0.5
339 1 0.699447 0.590744 0.5
341 1 0.750208 0.591266 0.5
343 1 0.8009 0.592989 0.5
345 1 0.852155 0.596041 0.5
347 1 0.90152 0.593609 0.5
349 1 0.951305 0.590835 0.5
332 1 0.522962 0.641238 0.5
420 1 0.945461 0.995682 0.5
353 1 0.55102 0.688033 0.5
334 1 0.574111 0.641935 0.5
355 1 0.599812 0.688782 0.5
336 1 0.621658 0.641073 0.5
338 1 0.67775 0.64339 0.5
357 1 0.651002 0.689099 0.5
340 1 0.727447 0.642664 0.5
359 1 0.70446 0.690842 0.5
342 1 0.777605 0.645319 0.5
361 1 0.753927 0.692751 0.5
363 1 0.802452 0.693794 0.5
344 1 0.825092 0.642064 0.5
365 1 0.849593 0.691426 0.5
346 1 0.874062 0.64355 0.5
348 1 0.926075 0.642781 0.5
367 1 0.899641 0.690531 0.5
350 1 0.974545 0.642625 0.5
369 1 0.94916 0.690362 0.5
352 1 0.529079 0.741516 0.5
354 1 0.577301 0.740549 0.5
356 1 0.625106 0.738143 0.5
358 1 0.674424 0.738136 0.5
360 1 0.729761 0.742418 0.5
362 1 0.777391 0.73977 0.5
364 1 0.826132 0.744538 0.5
366 1 0.872683 0.744867 0.5
368 1 0.922234 0.740696 0.5
370 1 0.969424 0.743426 0.5
371 1 0.504015 0.790797 0.5
372 1 0.527664 0.838784 0.5
373 1 0.552425 0.79094 0.5
374 1 0.5753 0.840088 0.5
375 1 0.600256 0.790803 0.5
376 1 0.623213 0.838219 0.5
377 1 0.651122 0.787823 0.5
378 1 0.678383 0.836835 0.5
379 1 0.702386 0.788129 0.5
380 1 0.725343 0.838174 0.5
381 1 0.753913 0.789337 0.5
382 1 0.776836 0.841275 0.5
383 1 0.799316 0.792945 0.5
384 1 0.826338 0.840829 0.5
385 1 0.853581 0.793443 0.5
386 1 0.874679 0.844239 0.5
387 1 0.900455 0.791685 0.5
388 1 0.922647 0.840744 0.5
389 1 0.947949 0.792009 0.5
390 1 0.971332 0.84349 0.5
391 1 0.501186 0.891451 0.5
393 1 0.550519 0.888516 0.5
395 1 0.603787 0.887581 0.5
397 1 0.6532 0.889245 0.5
399 1 0.700573 0.894151 0.5
401 1 0.750319 0.890677 0.5
403 1 0.799529 0.892784 0.5
405 1 0.851472 0.89343 0.5
407 1 0.897829 0.89705 0.5
409 1 0.945802 0.892632 0.5
392 1 0.531565 0.945081 0.5
410 1 0.968206 0.943479 0.5
412 1 0.555895 0.998804 0.5
394 1 0.579193 0.934229 0.5
413 1 0.600899 0.983442 0.5
396 1 0.628549 0.936126 0.5
398 1 0.675581 0.941484 0.5
414 1 0.648234 0.990957 0.5
400 1 0.727096 0.937265 0.5
415 1 0.700987 0.988903 0.5
402 1 0.773995 0.938397 0.5
416 1 0.753139 0.985556 0.5
411 1 0.503522 0.989982 0.5
141 1 0.998982 0.694286 0.5
323 1 0.801418 0.500026 0.5
ITEM: TIMESTEP
500
ITEM: NUMBER OF ATOMS
420
ITEM: BOX BOUNDS pp ss pp
0.0000000000000000e+00 2.2653923264628304e+01
-1.9618873042551413e-03 1.9752376032916288e+01
-2.8317404080785380e-01 2.8317404080785380e-01
ITEM: ATOMS id type xs ys zs
1 2 0 9.93143e-05 0.5
2 2 0.025 0.0497564 0.5
3 2 0.05 9.93143e-05 0.5
4 2 0.075 0.0497564 0.5
5 2 0.1 9.93143e-05 0.5
6 2 0.125 0.0497564 0.5
7 2 0.15 9.93143e-05 0.5
8 2 0.175 0.0497564 0.5
9 2 0.2 9.93143e-05 0.5
10 2 0.225 0.0497564 0.5
11 2 0.25 9.93143e-05 0.5
12 2 0.275 0.0497564 0.5
13 2 0.3 9.93143e-05 0.5
14 2 0.325 0.0497564 0.5
15 2 0.35 9.93143e-05 0.5
16 2 0.375 0.0497564 0.5
17 2 0.4 9.93143e-05 0.5
18 2 0.425 0.0497564 0.5
19 2 0.45 9.93143e-05 0.5
20 2 0.475 0.0497564 0.5
21 2 0 0.0994136 0.5
23 2 0.05 0.0994136 0.5
25 2 0.1 0.0994136 0.5
27 2 0.15 0.0994136 0.5
29 2 0.2 0.0994136 0.5
31 2 0.25 0.0994136 0.5
33 2 0.3 0.0994136 0.5
35 2 0.35 0.0994136 0.5
37 2 0.4 0.0994136 0.5
39 2 0.45 0.0994136 0.5
22 1 0.0250966 0.151049 0.5
100 1 0.474354 0.448482 0.5
43 1 0.0517164 0.203861 0.5
24 1 0.0745568 0.151832 0.5
45 1 0.0992888 0.19837 0.5
26 1 0.122801 0.14903 0.5
28 1 0.171825 0.146316 0.5
47 1 0.148288 0.196565 0.5
30 1 0.226735 0.147444 0.5
49 1 0.196958 0.193525 0.5
32 1 0.275541 0.149497 0.5
51 1 0.247952 0.199135 0.5
53 1 0.300259 0.198855 0.5
34 1 0.325926 0.149073 0.5
55 1 0.347411 0.200921 0.5
36 1 0.373536 0.152156 0.5
38 1 0.422003 0.148431 0.5
57 1 0.396061 0.200737 0.5
40 1 0.472029 0.147306 0.5
59 1 0.445924 0.200693 0.5
42 1 0.0244492 0.24847 0.5
44 1 0.0751206 0.251997 0.5
46 1 0.125947 0.24946 0.5
48 1 0.174871 0.249219 0.5
50 1 0.223789 0.246213 0.5
52 1 0.274203 0.248776 0.5
54 1 0.323433 0.249721 0.5
56 1 0.371737 0.252417 0.5
58 1 0.422824 0.250192 0.5
60 1 0.470311 0.247797 0.5
98 1 0.427107 0.445176 0.5
62 1 0.0245872 0.348269 0.5
63 1 0.0503763 0.300617 0.5
64 1 0.0750734 0.347306 0.5
65 1 0.099233 0.300552 0.5
66 1 0.123333 0.349188 0.5
67 1 0.149566 0.298308 0.5
68 1 0.173779 0.344812 0.5
69 1 0.200812 0.299316 0.5
70 1 0.224129 0.347323 0.5
71 1 0.250566 0.296568 0.5
72 1 0.272899 0.349743 0.5
73 1 0.297597 0.300057 0.5
74 1 0.319411 0.349366 0.5
75 1 0.344968 0.29944 0.5
76 1 0.372705 0.347517 0.5
77 1 0.401039 0.299976 0.5
78 1 0.425511 0.34962 0.5
79 1 0.450954 0.299754 0.5
80 1 0.477185 0.348131 0.5
96 1 0.377883 0.446316 0.5
83 1 0.0509438 0.395219 0.5
85 1 0.099236 0.396903 0.5
87 1 0.149246 0.40085 0.5
89 1 0.1991 0.399689 0.5
91 1 0.250606 0.396784 0.5
93 1 0.299121 0.400504 0.5
95 1 0.351489 0.394625 0.5
97 1 0.39939 0.39537 0.5
99 1 0.451318 0.39942 0.5
82 1 0.0264029 0.447655 0.5
84 1 0.0750155 0.445532 0.5
86 1 0.121757 0.449621 0.5
88 1 0.17357 0.446443 0.5
90 1 0.224736 0.446883 0.5
92 1 0.276844 0.447433 0.5
94 1 0.326926 0.444315 0.5
105 1 0.0988068 0.499071 0.5
103 1 0.0525521 0.494771 0.5
109 1 0.199739 0.4949 0.5
101 1 0.00298236 0.499823 0.5
113 1 0.302556 0.496574 0.5
107 1 0.150668 0.497141 0.5
115 1 0.351875 0.495869 0.5
117 1 0.403754 0.49785 0.5
41 1 0.00250679 0.198292 0.5
81 1 0.00328159 0.400003 0.5
111 1 0.246595 0.496012 0.5
251 1 0.496816 0.196278 0.5
291 1 0.500291 0.396045 0.5
204 1 0.150611 0.996263 0.5
102 1 0.0256863 0.547937 0.5
188 1 0.173821 0.947428 0.5
104 1 0.0752958 0.548451 0.5
196 1 0.376225 0.942532 0.5
106 1 0.124023 0.547481 0.5
208 1 0.349154 0.995186 0.5
108 1 0.175534 0.545504 0.5
194 1 0.325363 0.945689 0.5
110 1 0.224342 0.548227 0.5
391 1 0.496926 0.893206 0.5
112 1 0.275078 0.541613 0.5
207 1 0.301567 0.994706 0.5
114 1 0.327437 0.548636 0.5
206 1 0.246722 0.997194 0.5
116 1 0.374772 0.545375 0.5
192 1 0.277019 0.946022 0.5
118 1 0.425979 0.550014 0.5
205 1 0.198943 0.997033 0.5
120 1 0.477691 0.551034 0.5
210 1 0.448282 0.991893 0.5
123 1 0.0516796 0.597395 0.5
125 1 0.10256 0.595144 0.5
127 1 0.150489 0.595512 0.5
129 1 0.198332 0.597164 0.5
131 1 0.251308 0.594988 0.5
133 1 0.300733 0.593714 0.5
135 1 0.349133 0.597634 0.5
137 1 0.399837 0.597445 0.5
139 1 0.448483 0.59961 0.5
122 1 0.0271114 0.651494 0.5
200 1 0.474598 0.945181 0.5
143 1 0.050527 0.699528 0.5
124 1 0.0787904 0.644558 0.5
145 1 0.0975441 0.697232 0.5
126 1 0.126585 0.646384 0.5
128 1 0.173979 0.647415 0.5
147 1 0.149733 0.696108 0.5
130 1 0.223233 0.646654 0.5
149 1 0.199322 0.696391 0.5
132 1 0.274201 0.643579 0.5
151 1 0.248291 0.693302 0.5
153 1 0.299011 0.696869 0.5
134 1 0.322083 0.645874 0.5
155 1 0.349041 0.697554 0.5
136 1 0.373606 0.646896 0.5
138 1 0.425034 0.647256 0.5
157 1 0.397411 0.698077 0.5
140 1 0.474056 0.648288 0.5
159 1 0.448461 0.700813 0.5
142 1 0.0238856 0.747011 0.5
144 1 0.074219 0.748453 0.5
146 1 0.125385 0.749008 0.5
148 1 0.175298 0.746728 0.5
150 1 0.224067 0.747715 0.5
152 1 0.272643 0.745514 0.5
154 1 0.323877 0.749664 0.5
156 1 0.371334 0.746933 0.5
158 1 0.420832 0.746675 0.5
160 1 0.472124 0.748935 0.5
190 1 0.226017 0.944667 0.5
162 1 0.026139 0.845884 0.5
163 1 0.048361 0.79434 0.5
164 1 0.0758832 0.846912 0.5
165 1 0.0990766 0.795518 0.5
166 1 0.123951 0.845846 0.5
167 1 0.150398 0.79728 0.5
168 1 0.176134 0.848035 0.5
169 1 0.200066 0.796039 0.5
170 1 0.22765 0.849488 0.5
171 1 0.247355 0.797892 0.5
172 1 0.274163 0.8465 0.5
173 1 0.296507 0.797097 0.5
174 1 0.323475 0.846674 0.5
175 1 0.347884 0.797787 0.5
176 1 0.372854 0.845307 0.5
177 1 0.398675 0.793294 0.5
178 1 0.421153 0.843867 0.5
179 1 0.448182 0.796337 0.5
180 1 0.47136 0.845593 0.5
209 1 0.39821 0.991958 0.5
183 1 0.0514729 0.89881 0.5
185 1 0.103259 0.897144 0.5
187 1 0.150394 0.895741 0.5
189 1 0.201703 0.898593 0.5
191 1 0.251107 0.897146 0.5
193 1 0.301143 0.897502 0.5
195 1 0.347611 0.895354 0.5
197 1 0.399563 0.894407 0.5
199 1 0.449134 0.893971 0.5
182 1 0.0248541 0.945998 0.5
198 1 0.42612 0.943675 0.5
202 1 0.0482509 0.995569 0.5
184 1 0.0721554 0.947061 0.5
203 1 0.0989304 0.999056 0.5
186 1 0.126067 0.946628 0.5
411 1 0.497012 0.991243 0.5
371 1 0.497089 0.795267 0.5
181 1 0.00247363 0.894214 0.5
121 1 0.00132986 0.599942 0.5
141 1 0.00259303 0.697752 0.5
351 1 0.497576 0.697072 0.5
119 1 0.452005 0.503636 0.5
211 2 0.5 9.93143e-05 0.5
212 2 0.525 0.0497564 0.5
213 2 0.55 9.93143e-05 0.5
214 2 0.575 0.0497564 0.5
215 2 0.6 9.93143e-05 0.5
216 2 0.625 0.0497564 0.5
217 2 0.65 9.93143e-05 0.5
218 2 0.675 0.0497564 0.5
219 2 0.7 9.93143e-05 0.5
220 2 0.725 0.0497564 0.5
221 2 0.75 9.93143e-05 0.5
222 2 0.775 0.0497564 0.5
223 2 0.8 9.93143e-05 0.5
224 2 0.825 0.0497564 0.5
225 2 0.85 9.93143e-05 0.5
226 2 0.875 0.0497564 0.5
227 2 0.9 9.93143e-05 0.5
228 2 0.925 0.0497564 0.5
229 2 0.95 9.93143e-05 0.5
230 2 0.975 0.0497564 0.5
231 2 0.5 0.0994136 0.5
233 2 0.55 0.0994136 0.5
235 2 0.6 0.0994136 0.5
237 2 0.65 0.0994136 0.5
239 2 0.7 0.0994136 0.5
241 2 0.75 0.0994136 0.5
243 2 0.8 0.0994136 0.5
245 2 0.85 0.0994136 0.5
247 2 0.9 0.0994136 0.5
249 2 0.95 0.0994136 0.5
232 1 0.525932 0.148655 0.5
311 1 0.500185 0.498059 0.5
253 1 0.549764 0.197632 0.5
234 1 0.577287 0.148201 0.5
255 1 0.602916 0.198514 0.5
236 1 0.626511 0.146749 0.5
238 1 0.675219 0.146977 0.5
257 1 0.652752 0.195646 0.5
240 1 0.728122 0.147632 0.5
259 1 0.704687 0.197087 0.5
242 1 0.7774 0.14877 0.5
261 1 0.755583 0.197039 0.5
263 1 0.802635 0.197576 0.5
244 1 0.82528 0.148388 0.5
265 1 0.85262 0.197694 0.5
246 1 0.875395 0.148271 0.5
248 1 0.927911 0.149387 0.5
267 1 0.901075 0.198695 0.5
250 1 0.976233 0.149622 0.5
269 1 0.951859 0.199576 0.5
252 1 0.525054 0.246184 0.5
254 1 0.575053 0.245394 0.5
256 1 0.625058 0.245761 0.5
258 1 0.676138 0.24301 0.5
260 1 0.729722 0.243924 0.5
262 1 0.779631 0.24733 0.5
264 1 0.828373 0.247291 0.5
266 1 0.875387 0.246824 0.5
268 1 0.925108 0.248993 0.5
270 1 0.976319 0.246653 0.5
317 1 0.650136 0.492706 0.5
272 1 0.525178 0.346673 0.5
273 1 0.550049 0.298196 0.5
274 1 0.575755 0.345403 0.5
275 1 0.598429 0.294331 0.5
276 1 0.624562 0.344415 0.5
277 1 0.650082 0.298137 0.5
278 1 0.674109 0.349122 0.5
279 1 0.700017 0.291537 0.5
280 1 0.726532 0.346767 0.5
281 1 0.754712 0.294773 0.5
282 1 0.775338 0.347807 0.5
283 1 0.803809 0.296485 0.5
284 1 0.827167 0.345506 0.5
285 1 0.852482 0.297703 0.5
286 1 0.879055 0.34572 0.5
287 1 0.902776 0.298259 0.5
288 1 0.926078 0.349621 0.5
289 1 0.950394 0.297682 0.5
290 1 0.978252 0.352158 0.5
327 1 0.900192 0.49673 0.5
293 1 0.54983 0.394822 0.5
295 1 0.59823 0.395265 0.5
297 1 0.646246 0.395327 0.5
299 1 0.699827 0.39334 0.5
301 1 0.749307 0.395574 0.5
303 1 0.80086 0.396088 0.5
305 1 0.851118 0.395632 0.5
307 1 0.899563 0.395753 0.5
309 1 0.95196 0.400786 0.5
292 1 0.52379 0.44429 0.5