LAMMPS (29 Sep 2021 - Update 2)
Reading data file ...
  orthogonal box = (0.0000000 0.0000000 -0.10000000) to (35.856860 35.856860 0.10000000)
  2 by 2 by 1 MPI processor grid
  reading atoms ...
  1200 atoms
  scanning bonds ...
  1 = max bonds/atom
  reading bonds ...
  300 bonds
Finding 1-2 1-3 1-4 neighbors ...
  special bond factors lj:    0        0        0       
  special bond factors coul:  0        0        0       
     2 = max # of 1-2 neighbors
     1 = max # of 1-3 neighbors
     1 = max # of 1-4 neighbors
     2 = max # of special neighbors
  special bonds CPU = 0.000 seconds
  read_data CPU = 0.022 seconds
Finding 1-2 1-3 1-4 neighbors ...
  special bond factors lj:    0        1        1       
  special bond factors coul:  0        1        1       
     2 = max # of 1-2 neighbors
     2 = max # of special neighbors
  special bonds CPU = 0.000 seconds
Neighbor list info ...
  update every 1 steps, delay 5 steps, check yes
  max neighbors/atom: 2000, page size: 100000
  master list distance cutoff = 1.42246
  ghost atom cutoff = 1.42246
  binsize = 0.71123, bins = 51 51 1
  1 neighbor lists, perpetual/occasional/extra = 1 0 0
  (1) pair soft, perpetual
      attributes: half, newton on
      pair build: half/bin/newton
      stencil: half/bin/2d
      bin: standard
Setting up Verlet run ...
  Unit style    : lj
  Current step  : 0
  Time step     : 0.005
WARNING: Communication cutoff 1.42246 is shorter than a bond length based estimate of 1.425. This may lead to errors. (../comm.cpp:730)
Per MPI rank memory allocation (min/avg/max) = 4.126 | 4.126 | 4.127 Mbytes
Step Temp E_pair E_mol TotEng Press 
       0         0.45   0.40003481 2.2200223e-06   0.84966203   0.78952518 
      50   0.47411013   0.67721272  0.057404514    1.2083323    1.3375852 
     100         0.45   0.73046745  0.054836584     1.234929    2.3196516 
     150   0.67521742   0.72402001  0.043490075    1.4421648    2.8744416 
     200         0.45   0.78481891  0.076931503    1.3113754    3.0412388 
     250   0.66479018   0.69790602  0.081075564    1.4432178    3.6917024 
     300         0.45   0.76820218  0.066727591    1.2845548    3.7861054 
     350   0.67619136     0.625715  0.072722727    1.3740656    4.2861621 
     400         0.45   0.68527759  0.090724527    1.2256271    4.4725214 
     450   0.56702844   0.64402767  0.080555563    1.2911391    4.7402211 
     500         0.45   0.64883009  0.078376672    1.1768318    4.7919294 
     550     0.564664   0.58260368  0.080779475    1.2275766    4.9855705 
     600         0.45   0.58193041  0.088386617     1.119942     5.131481 
     650   0.52110993    0.5415273  0.097683746    1.1598867    5.2500294 
     700         0.45   0.50856787  0.088471208    1.0466641    5.2550165 
     750   0.51510855   0.47441291  0.089429375    1.0785216     5.375763 
     800         0.45   0.49926696  0.085958476    1.0348504    5.4665914 
     850   0.50688494   0.46614429  0.088962292    1.0615691     5.556932 
     900         0.45   0.47785593   0.10150857    1.0289895    5.7765975 
     950   0.49590559   0.46050477  0.096404887     1.052402    5.8649245 
    1000         0.45   0.47691182   0.08808163    1.0146185    6.0177568 
Loop time of 0.052189 on 4 procs for 1000 steps with 1200 atoms

Performance: 8277609.168 tau/day, 19161.132 timesteps/s
99.6% CPU use with 4 MPI tasks x no OpenMP threads

MPI task timing breakdown:
Section |  min time  |  avg time  |  max time  |%varavg| %total
---------------------------------------------------------------
Pair    | 0.027122   | 0.027898   | 0.028684   |   0.3 | 53.46
Bond    | 0.0016965  | 0.0017724  | 0.0018583  |   0.2 |  3.40
Neigh   | 0.0057237  | 0.005752   | 0.0057778  |   0.0 | 11.02
Comm    | 0.0071207  | 0.0080311  | 0.0089929  |   0.8 | 15.39
Output  | 0.0002141  | 0.00021992 | 0.0002341  |   0.0 |  0.42
Modify  | 0.0062239  | 0.0064237  | 0.0066407  |   0.2 | 12.31
Other   |            | 0.002092   |            |       |  4.01

Nlocal:        300.000 ave         305 max         292 min
Histogram: 1 0 0 0 0 0 1 0 1 1
Nghost:        100.250 ave         108 max          93 min
Histogram: 1 0 1 0 0 0 1 0 0 1
Neighs:        784.000 ave         815 max         739 min
Histogram: 1 0 0 0 0 0 1 1 0 1

Total # of neighbors = 3136
Ave neighs/atom = 2.6133333
Ave special neighs/atom = 0.50000000
Neighbor list builds = 92
Dangerous builds = 0
Neighbor list info ...
  update every 1 steps, delay 5 steps, check yes
  max neighbors/atom: 2000, page size: 100000
  master list distance cutoff = 2.8
  ghost atom cutoff = 2.8
  binsize = 1.4, bins = 26 26 1
  1 neighbor lists, perpetual/occasional/extra = 1 0 0
  (1) pair lj/cut, perpetual
      attributes: half, newton on
      pair build: half/bin/newton
      stencil: half/bin/2d
      bin: standard
Setting up Verlet run ...
  Unit style    : lj
  Current step  : 0
  Time step     : 0.005
Per MPI rank memory allocation (min/avg/max) = 5.136 | 5.136 | 5.137 Mbytes
Step Temp E_pair E_mol TotEng Press 
       0         0.45   -1.0233698   0.08808163  -0.48566315    2.6539508 
      50   0.49318762   -1.0311834  0.061586844  -0.47681996    2.6086412 
     100         0.45   -1.0130195  0.074308992  -0.48908548    2.8254886 
     150    0.4677195   -1.0285791  0.076955675  -0.48429368    2.6114735 
     200         0.45   -1.0313944  0.070621479  -0.51114794    2.6357573 
     250   0.48562708   -1.0539749  0.061740632  -0.50701191    2.4802119 
     300         0.45   -1.0428933  0.068466715  -0.52480162    2.6162883 
     350    0.4564539   -1.0542838  0.068328251  -0.52988204    2.4550599 
     400         0.45   -1.0822602  0.071431412  -0.56120378    2.2566844 
     450   0.43540155   -1.0587539  0.070974377  -0.55274081    2.3579444 
     500   0.45813779   -1.0739334  0.070442258  -0.54573515    2.2919299 
     550   0.45682469   -1.0703286   0.07441318  -0.53947141    2.2801093 
     600    0.4521779   -1.0565449  0.064773239  -0.53997062    2.4477401 
     650   0.45892806   -1.0733705  0.071920283  -0.54290459    2.3799429 
     700   0.46398186   -1.0740194  0.062039326  -0.54838486    2.3287866 
     750   0.46897238   -1.0807886  0.065331718  -0.54687528    2.2706984 
     800         0.45   -1.0779111  0.067279767  -0.56100632    2.2914627 
     850   0.46403455   -1.0708756  0.064365975  -0.54286175    2.3011531 
     900   0.46434991    -1.072451  0.069358783  -0.53912925    2.1895431 
     950   0.45447276   -1.0573744  0.056467823  -0.54681256    2.3568072 
    1000    0.4540058   -1.0669097  0.060290142  -0.55299209     2.331589 
    1050    0.4606934   -1.0886261  0.064623187  -0.56369339    2.2296746 
    1100   0.44267905   -1.0540997  0.061898758  -0.54989083    2.3084342 
    1150   0.46511997   -1.0735966  0.058071668  -0.55079257    2.2884537 
    1200    0.4591432   -1.0701396  0.055607761  -0.55577124    2.3332571 
    1250    0.4677904   -1.0816925  0.062469531  -0.55182244     2.096983 
    1300   0.46909827   -1.0806962  0.059539526  -0.55244928      2.26462 
    1350   0.45825506   -1.0707062  0.064069046  -0.54876402    2.2750699 
    1400   0.46119411   -1.0755477  0.062468742  -0.55226915    2.2384365 
    1450   0.47652223   -1.0733777  0.058066077   -0.5391865    2.1579204 
    1500   0.45672682   -1.0802393  0.075755605  -0.54813748    2.2240814 
    1550   0.46644818   -1.0641591  0.062151556  -0.53594809    2.1945674 
    1600         0.45   -1.0742814  0.069797433  -0.55485894    2.1878643 
    1650    0.4718698   -1.0861806  0.057351409  -0.55735258    2.1272502 
    1700   0.45681296   -1.0814949  0.064190765  -0.56087188    2.1589899 
    1750   0.46104669   -1.0931772  0.067737602  -0.56477709    2.0967906 
    1800   0.46409969   -1.0945596  0.070709601  -0.56013707    2.1195623 
    1850    0.4627082    -1.085221  0.068904791  -0.55399359    2.0724748 
    1900         0.45   -1.0740751  0.059805938   -0.5646442    2.1665723 
    1950   0.46220306   -1.1055969  0.064005743   -0.5797733    1.9388251 
    2000   0.45112158   -1.0916042  0.068801327  -0.57205725    2.0542775 
    2050   0.46191016   -1.0958644  0.064494794  -0.56984435    2.0015813 
    2100   0.45593775    -1.095555  0.060670104  -0.57932714    2.0165555 
    2150   0.47069218   -1.0969677  0.058103267  -0.56856447    1.9847124 
    2200    0.4570287   -1.0978552  0.069448326  -0.57175903    2.0251123 
    2250   0.47362681   -1.1022228  0.061607523  -0.56738319    1.9867012 
    2300   0.46685289   -1.1026261  0.066289732  -0.56987251    2.0027139 
    2350   0.46326497   -1.0862508   0.05774388  -0.56562804    2.0399612 
    2400   0.46648868   -1.0962337  0.063084351  -0.56704941    1.9623693 
    2450    0.4587646   -1.0990512  0.066398986  -0.57426997    1.9669259 
    2500   0.46131732   -1.0949207  0.062138383  -0.57184943    2.0574306 
    2550   0.47612465   -1.1027793  0.060669248  -0.56638213    1.9190452 
    2600   0.45707305   -1.0991541  0.073627943  -0.56883397    1.9756771 
    2650    0.4696647   -1.1122788  0.069962599  -0.57304285    1.9875169 
    2700    0.4695283   -1.1004663  0.066168957   -0.5651603    2.0508593 
    2750    0.4685561   -1.0919207  0.068160411  -0.55559467    2.0293911 
    2800   0.46100103   -1.0959709  0.062664328  -0.57268972    2.0291181 
    2850   0.46267639   -1.0879857  0.060863483  -0.56483139    2.0760964 
    2900   0.45714811    -1.078396  0.061315898  -0.56031295    2.2052374 
    2950    0.4584436   -1.0871023  0.060551229  -0.56848952    2.0912806 
    3000   0.46373668   -1.1053444  0.068483577  -0.57351056    2.0410427 
    3050   0.47347706   -1.0972439  0.057360158  -0.56680128    2.0312927 
    3100         0.45   -1.1119797  0.065275225  -0.59707949    1.8380934 
    3150   0.45834556    -1.122713  0.065298958   -0.5994504    1.8381232 
    3200   0.45147004   -1.1039759  0.059492772  -0.59338928    1.8796101 
    3250   0.46041855   -1.1114419  0.056051176  -0.59535584    1.8055001 
    3300   0.45593668   -1.1163366   0.06612922  -0.59465066    1.8227939 
    3350   0.45654327   -1.1175899  0.062282159  -0.59914489    1.7743124 
    3400   0.44919198   -1.1058242  0.056179093  -0.60082747     1.944006 
    3450   0.44083148   -1.0935156  0.065665735  -0.58738577     1.930356 
    3500   0.44119561   -1.0982014  0.064902651   -0.5924708    1.9844803 
    3550   0.46465966    -1.124752  0.066390418  -0.59408915    1.8145104 
    3600    0.4615758   -1.1149906  0.061608446  -0.59219101    1.8317636 
    3650   0.44781864   -1.1097526  0.062620157  -0.59968694    1.9413469 
    3700   0.45411797   -1.1082528  0.052804272  -0.60170902    1.9450288 
    3750   0.45987355   -1.1090914  0.054369006  -0.59523212    1.8697346 
    3800   0.43671252   -1.1047415  0.066380193  -0.60201272    1.9556091 
    3850   0.44383313   -1.0994339  0.060583973  -0.59538665    1.9307857 
    3900   0.45056249   -1.1046125  0.061061883  -0.59336356    1.9062557 
    3950   0.46061303   -1.1194037  0.063150163   -0.5960243    1.8246768 
    4000   0.45463732   -1.1061504  0.058512551   -0.5933794    1.8819656 
    4050    0.4406792   -1.1059219  0.071168036  -0.59444193     1.946915 
    4100   0.45179255   -1.1109127  0.071159605    -0.588337    1.8334302 
    4150   0.44513548   -1.1036366  0.069273851  -0.58959825    1.8833929 
    4200   0.44310537   -1.1029643   0.06699382  -0.59323432    1.9251016 
    4250   0.45536899   -1.1151645  0.063631171  -0.59654385     1.888701 
    4300   0.45938296   -1.1126071  0.055476679  -0.59813028    1.9521066 
    4350   0.47914115   -1.1278535  0.060964188  -0.58814749    1.7208114 
    4400   0.43934344    -1.095355  0.065321841  -0.59105585    2.0182467 
    4450   0.47015377   -1.1249818  0.058246901  -0.59697297    1.7920901 
    4500   0.46324926   -1.1143091  0.062527942  -0.58891792    1.8583517 
    4550   0.47016266   -1.1287914  0.062509025   -0.5965115    1.7441403 
    4600   0.46364711   -1.1086994  0.054929105  -0.59050958    1.8971239 
    4650   0.46170783    -1.116626  0.064656391  -0.59064655    1.8572825 
    4700         0.45   -1.1265825  0.061261766  -0.61569572    1.7606435 
    4750   0.44736516   -1.1055996   0.04940509  -0.60920215      1.88555 
    4800   0.44858807   -1.1159579  0.057634097  -0.61010958    1.8684124 
    4850    0.4388182   -1.0954765  0.051275721  -0.60574827     1.845574 
    4900   0.45366368   -1.1102277  0.049761725  -0.60718031    1.8456228 
    4950   0.44831385   -1.1151892  0.064499014  -0.60274993    1.7728914 
    5000    0.4474514   -1.1100386  0.059799899  -0.60316018    1.8250891 
    5050   0.44036095   -1.1213486  0.069203283  -0.61215133    1.7131989 
    5100   0.44684117   -1.1189832  0.061156656  -0.61135778    1.8618429 
    5150   0.44555028   -1.1085795  0.058457451  -0.60494308    1.8301888 
    5200   0.44795206   -1.1191679  0.063043245  -0.60854594    1.8544094 
    5250   0.45760366   -1.1241203    0.0614041  -0.60549388     1.775396 
    5300   0.46580726   -1.1215675  0.056107869  -0.60004053    1.7105388 
    5350   0.45565471   -1.1204622  0.060058679  -0.60512852    1.7300003 
    5400   0.44212059   -1.1110912  0.062408308  -0.60693072    1.8337208 
    5450   0.45613304   -1.1237206  0.060362054  -0.60760563    1.7338777 
    5500   0.44692238   -1.1162994  0.071159964  -0.59858948    1.8077032 
    5550   0.45000343   -1.1216698  0.064973571  -0.60706775    1.7233396 
    5600   0.45174797   -1.1264412   0.06732695   -0.6077427    1.6993808 
    5650   0.45231467   -1.1330783    0.0661233  -0.61501724    1.7062091 
    5700   0.45144821   -1.1153796  0.063818121  -0.60048949     1.810701 
    5750   0.46730802   -1.1419943  0.069632455   -0.6054433    1.6261334 
    5800    0.4609017   -1.1250407  0.059386795  -0.60513625    1.7480803 
    5850   0.44473353   -1.1108921   0.06032434  -0.60620485    1.8308394 
    5900    0.4597739    -1.114754  0.051219954   -0.6041433    1.8498802 
    5950   0.45334716   -1.1299051  0.064224003  -0.61271168    1.6411681 
    6000    0.4524641   -1.1173449  0.061705863  -0.60355197    1.8781241 
    6050   0.45690177   -1.1194995  0.054773213  -0.60820532     1.786164 
    6100   0.46927006   -1.1302893  0.057506197  -0.60390414    1.8003241 
    6150   0.45639611   -1.1113714  0.052361021  -0.60299463    1.8777471 
    6200         0.45   -1.1363414  0.058856133  -0.62786025    1.6983787 
    6250   0.44053091   -1.1181192  0.055382117  -0.62257328    1.8080927 
    6300   0.43418844   -1.1232199  0.063551815  -0.62584144    1.7611785 
    6350   0.43106971   -1.1253186  0.061804356  -0.63280375    1.7668044 
    6400   0.44616079   -1.1182794  0.049135509   -0.6233549    1.7771098 
    6450   0.44593337   -1.1315217  0.056399324   -0.6295606    1.7016394 
    6500   0.44863928   -1.1218793  0.056658023  -0.61695584    1.6648469 
    6550    0.4509155   -1.1289238  0.057217235  -0.62116678    1.6930578 
    6600   0.44029545   -1.1237268  0.059401991  -0.62439627    1.7137418 
    6650   0.43554563   -1.1229834  0.062474234   -0.6253265    1.7904402 
    6700   0.43619623   -1.1232012  0.064667531  -0.62270091    1.7842366 
    6750   0.44260481   -1.1248569  0.061871208  -0.62074976    1.6742105 
    6800    0.4451915   -1.1289155  0.065865427  -0.61822956     1.690112 
    6850   0.44145491    -1.127705   0.06551344  -0.62110457    1.6732397 
    6900   0.43856439   -1.1246959  0.065364817  -0.62113219    1.7724686 
    6950   0.45012908   -1.1363466  0.061549616  -0.62504303    1.6907701 
    7000   0.44241353   -1.1299299  0.063156373   -0.6247287    1.6967744 
    7050   0.43682209   -1.1316213  0.067530241  -0.62763298    1.7185543 
    7100    0.4380939   -1.1253506  0.065429599  -0.62219221    1.7875358 
    7150   0.44675278   -1.1269435  0.059899418  -0.62066361    1.7116286 
    7200   0.44445706   -1.1291875  0.066554128  -0.61854667    1.6229755 
    7250   0.44696693    -1.133453  0.062571447  -0.62428712    1.6863382 
    7300   0.44469132   -1.1314203  0.064766638  -0.62233291    1.6484263 
    7350   0.44246224   -1.1260294  0.059147311  -0.62478854    1.6471645 
    7400   0.44101205    -1.118291  0.056418116  -0.62122838    1.8228437 
    7450   0.45184484   -1.1353582  0.058712357  -0.62517753    1.7495721 
    7500   0.44372131   -1.1213209  0.055213633  -0.62275573    1.8088053 
    7550   0.45935964    -1.131715  0.054320788  -0.61841737    1.7075017 
    7600   0.45878759   -1.1319142  0.055857045  -0.61765185    1.7373079 
    7650    0.4404924   -1.1195346   0.06189758  -0.61751172    1.8701106 
    7700   0.43938497   -1.1201027  0.062160487  -0.61892337    1.7132523 
    7750   0.44300983   -1.1189283  0.058977379  -0.61731025    1.7329144 
    7800    0.4503464   -1.1291441   0.05803927  -0.62113375     1.739011 
    7850   0.46270839   -1.1412067  0.059328527  -0.61955533    1.6176364 
    7900   0.45570486   -1.1415383  0.068373355  -0.61783979    1.6444487 
    7950   0.44497521     -1.11998  0.052732283  -0.62264331    1.7577326 
    8000   0.45070448   -1.1221154  0.057141115  -0.61464539    1.7708259 
    8050   0.44531464   -1.1306901  0.058916802  -0.62682971    1.6898344 
    8100   0.44515219   -1.1311189   0.06562216   -0.6207155    1.6397441 
    8150   0.44840096   -1.1348842  0.063371209  -0.62348574    1.6686945 
    8200   0.44931669    -1.130138  0.057366326  -0.62382944    1.6599568 
    8250   0.45810244    -1.132091  0.052861895  -0.62150841    1.6526501 
    8300   0.43181716   -1.1119959  0.058430378  -0.62210823    1.7148377 
    8350   0.45651198   -1.1380931  0.059292165  -0.62266938    1.5957682 
    8400   0.45786493   -1.1433544  0.061074468  -0.62479652    1.5463191 
    8450   0.44052766    -1.127585  0.066684019   -0.6207404     1.715892 
    8500   0.43835628   -1.1254334  0.064030437    -0.623412    1.6934051 
    8550   0.42118055   -1.1133667  0.065150555  -0.62738658    1.8038691 
    8600   0.44017086    -1.129481  0.061601636  -0.62807531    1.7425956 
    8650   0.45551471   -1.1351753  0.057152616   -0.6228876    1.6540767 
    8700    0.4352011   -1.1209084  0.063946573  -0.62212344    1.7717525 
    8750    0.4458192   -1.1282879   0.06674131  -0.61609895     1.671607 
    8800   0.45132072   -1.1274266   0.05492342  -0.62155852    1.6855797 
    8850   0.44596169   -1.1289648  0.060466277  -0.62290845    1.6828708 
    8900   0.44850328   -1.1367363  0.059332366  -0.62927444    1.7173931 
    8950   0.45731235   -1.1349589  0.057917911  -0.62010969    1.6390952 
    9000   0.43325578   -1.1321248   0.06821654  -0.63101355    1.7404305 
    9050   0.45878389   -1.1304163  0.053009537   -0.6190052    1.6612699 
    9100     0.459796   -1.1295485  0.048452508  -0.62168318    1.7045649 
    9150     0.448628   -1.1320988  0.061026007  -0.62281867    1.7683705 
    9200   0.45389006   -1.1239391  0.057203759  -0.61322349    1.7058183 
    9250   0.44038992    -1.118293  0.053043289  -0.62522677    1.8493152 
    9300   0.44398384   -1.1354495  0.064570542  -0.62726514    1.7043003 
    9350   0.46197349   -1.1445536  0.063869258  -0.61909583    1.6017042 
    9400   0.45678464   -1.1354979  0.059391859  -0.61970207    1.6439699 
    9450   0.46163615   -1.1428135  0.059751377  -0.62181065    1.6592772 
    9500    0.4680082   -1.1499338  0.060968792  -0.62134679    1.5517125 
    9550   0.45178737   -1.1277676   0.05787745  -0.61847924    1.6972808 
    9600    0.4362941   -1.1226552  0.068690497  -0.61803418    1.6961252 
    9650   0.45041329   -1.1229056  0.055405545  -0.61746208    1.7542574 
    9700   0.44220725   -1.1185425  0.057474482  -0.61922926    1.7149028 
    9750   0.45015309   -1.1227883  0.058955388  -0.61405495    1.7791429 
    9800   0.44673409   -1.1259682  0.058620743  -0.62098561    1.7346251 
    9850   0.44875567   -1.1322517  0.057528886   -0.6263411    1.6467675 
    9900   0.45475734   -1.1341619  0.062413573  -0.61736991    1.6587345 
    9950   0.44900028   -1.1258149  0.061658815  -0.61552993    1.7617747 
   10000    0.4414485   -1.1190421  0.059715925  -0.61824552    1.8117089 
   10050   0.45281251   -1.1280229   0.06022029  -0.61536743    1.7197225 
   10100   0.45288686   -1.1413224  0.069172199  -0.61964073    1.6525371 
   10150   0.46071423   -1.1387403  0.061922721   -0.6164873    1.6545804 
   10200   0.45684566   -1.1341363  0.060669942  -0.61700135    1.6517042 
   10250   0.45775432   -1.1307193  0.055785481  -0.61756096    1.7117605 
   10300   0.45057516    -1.128806  0.066055793  -0.61255051    1.6208147 
   10350   0.45784487   -1.1318222   0.06142053  -0.61293835    1.7176412 
   10400   0.44746168   -1.1224412  0.057803044  -0.61754938    1.7795691 
   10450   0.43977441   -1.1210648  0.060405633   -0.6212512    1.8453612 
   10500   0.45366264   -1.1397866  0.064991969     -0.62151    1.6474581 
   10550   0.44180601   -1.1220204   0.06460243  -0.61598015    1.6685325 
   10600   0.46115284   -1.1451321  0.063409919  -0.62095362      1.61223 
   10650   0.46367093   -1.1404937  0.055252002  -0.62195715    1.6110693 
   10700   0.45270355   -1.1303841  0.059322881  -0.61873494    1.6974968 
   10750   0.45622516   -1.1310879  0.058071805  -0.61717111    1.6795185 
   10800   0.45020808   -1.1286926   0.06089146  -0.61796828    1.6637556 
   10850   0.46064003   -1.1421653  0.058943498  -0.62296568     1.566648 
   10900   0.44159796   -1.1157783  0.056327681  -0.61822065    1.7752139 
   10950   0.44736887   -1.1355009   0.06634474  -0.62216007    1.6545495 
   11000   0.44793065   -1.1440006  0.074977311  -0.62146593    1.5692161 
   11050   0.44673036   -1.1371978  0.066835885  -0.62400386    1.5677223 
   11100   0.43872758   -1.1225418  0.062245028  -0.62193483    1.6771093 
   11150   0.46515386   -1.1531526  0.066383713  -0.62200265    1.5497317 
   11200   0.45149914   -1.1334099  0.069399515  -0.61288746    1.6522038 
   11250   0.45798286   -1.1300178  0.055383099  -0.61703349    1.7263643 
   11300   0.45018527   -1.1315073  0.063358671  -0.61833849    1.7721252 
   11350   0.45878505   -1.1337544  0.054577918   -0.6207738    1.7065666 
   11400   0.46110093   -1.1390751  0.058040987  -0.62031739    1.6153478 
   11450   0.44908456   -1.1347746   0.06095278  -0.62511153    1.8219219 
   11500   0.44958116    -1.120963  0.059109484  -0.61264699    1.8076258 
   11550   0.46056036   -1.1363601    0.0585921  -0.61759146    1.6538269 
   11600   0.45380133   -1.1233221  0.059718161  -0.61018079    1.7737036 
   11650   0.45816742   -1.1343468   0.05799894  -0.61856224    1.6007593 
   11700         0.45   -1.1414369  0.060562335  -0.63124956    1.5117576 
   11750   0.43727564   -1.1344184  0.061642759  -0.63586435    1.5593885 
   11800   0.44917967   -1.1471266  0.052758694   -0.6455626    1.5358383 
   11850   0.43505621   -1.1304536  0.062597608  -0.63316231    1.5755501 
   11900   0.43608407   -1.1241267  0.052104626   -0.6363014    1.7241125 
   11950   0.44409983   -1.1370853  0.059736949  -0.63361864    1.5457111 
   12000    0.4431209   -1.1386479  0.055544935  -0.64035133    1.6283935 
   12050   0.45022533    -1.157981  0.060865963  -0.64726485    1.5103036 
   12100   0.44282936   -1.1385029  0.059675824  -0.63636676    1.6727375 
   12150   0.44707338   -1.1476783  0.061418719  -0.63955871    1.6121982 
   12200   0.43943213   -1.1364823  0.058549965  -0.63886641    1.5944308 
   12250   0.44731599    -1.145589  0.058217655  -0.64042813    1.6038969 
   12300   0.43632613   -1.1431368  0.065244407  -0.64192991    1.5734597 
   12350   0.44287386   -1.1446052  0.061533526  -0.64056691    1.6565266 
   12400   0.44017965   -1.1366398  0.058555706  -0.63827131      1.60391 
   12450   0.46092341    -1.154139  0.055831377  -0.63776834    1.4327822 
   12500   0.43879055   -1.1390255  0.063891305  -0.63670935    1.5863227 
   12550   0.44539275   -1.1366717  0.058628248  -0.63302184    1.5659791 
   12600   0.44622399   -1.1411661   0.05015685  -0.64515708    1.5945507 
   12650   0.44687346   -1.1388405  0.056189784  -0.63614968    1.6330701 
   12700   0.44011564   -1.1364371  0.054217903  -0.64247036    1.7025087 
   12750   0.45600643   -1.1501342  0.054474633  -0.64003315    1.6521274 
   12800         0.45    -1.133209  0.060229942   -0.6233541     1.763772 
   12850   0.45526038   -1.1353054  0.067166227  -0.61325815    1.6725794 
   12900    0.4632351   -1.1340799  0.061101775  -0.61012907    1.6575793 
   12950   0.45999241   -1.1373449  0.059575244  -0.61816053    1.6339338 
   13000   0.45611396   -1.1472723  0.071626486  -0.61991195    1.6497331 
   13050   0.45686901   -1.1321871  0.059339448  -0.61635938     1.688647 
   13100         0.45   -1.1449957  0.057053637  -0.63831703     1.612628 
   13150   0.45498641   -1.1517058  0.061539925  -0.63555865    1.5007771 
   13200   0.45268478    -1.140601  0.054355711   -0.6339377    1.5625374 
   13250   0.45843188    -1.148838  0.057467602  -0.63332057    1.5565249 
   13300   0.45250906    -1.158304  0.065718185  -0.64045387    1.4765982 
   13350   0.45392627   -1.1624367  0.067807995  -0.64108073    1.4699207 
   13400   0.45064845   -1.1444067  0.058611062  -0.63552269    1.5653328 
   13450   0.44746825   -1.1490666  0.063678971  -0.63829229    1.5927334 
   13500   0.46569029   -1.1494829  0.052646629  -0.63153401    1.4681989 
   13550    0.4304497   -1.1191298  0.057731062  -0.63130775    1.7594062 
   13600   0.44577495   -1.1303377  0.055738124  -0.62919612    1.5613429 
   13650    0.4376389   -1.1320226  0.058365737  -0.63638269    1.6564889 
   13700   0.44066865   -1.1409364  0.065294206  -0.63534074    1.5441226 
   13750   0.42949636   -1.1259925  0.068250319  -0.62860372    1.7040681 
   13800   0.45173152   -1.1449254  0.059879337  -0.63369094    1.4645366 
   13850   0.42826088   -1.1295598  0.060098102  -0.64155768    1.6549213 
   13900   0.43254548   -1.1316595  0.065095169  -0.63437928    1.6014565 
   13950   0.44392981   -1.1450936  0.062875667  -0.63865808     1.528268 
   14000         0.45   -1.1241395  0.064641788  -0.60987275    1.7297508 
   14050    0.4729745   -1.1351578  0.056144954  -0.60643252    1.6251182 
   14100   0.46342675   -1.1294754  0.057318943  -0.60911588    1.6371674 
   14150   0.44860189    -1.128567  0.069318488  -0.61102049    1.7129763 
   14200   0.46540821   -1.1409897  0.063187396  -0.61278194    1.6888344 
   14250   0.47825586   -1.1503253  0.058583227   -0.6138848    1.5722559 
   14300         0.45   -1.1372542  0.059233154  -0.62839602    1.5477639 
   14350   0.45379663   -1.1566934   0.06547854  -0.63779644    1.4680089 
   14400   0.45808868   -1.1537426  0.061881842   -0.6341538    1.5332389 
   14450   0.44621262   -1.1453301  0.065622303    -0.633867     1.547631 
   14500   0.45385185   -1.1522412  0.064570448   -0.6341971    1.5568208 
   14550   0.44059404   -1.1483994  0.067257132  -0.64091534    1.5167586 
   14600    0.4436449   -1.1421151  0.065418256  -0.63342161    1.4387099 
   14650   0.43797144    -1.138769   0.06400821  -0.63715429    1.5470374 
   14700    0.4352501   -1.1452901   0.06974406  -0.64065864    1.5364408 
   14750   0.44625488   -1.1448392  0.061466784  -0.63748943    1.5692755 
   14800   0.45322121   -1.1539432  0.059914924   -0.6411848     1.510542 
   14850   0.45811538   -1.1557679  0.063156334  -0.63487799    1.4147718 
   14900   0.44304396   -1.1291353   0.05385999  -0.63260059    1.6249549 
   14950   0.45781837   -1.1510674  0.057486242  -0.63614431    1.4448829 
   15000   0.45526711   -1.1508708  0.060309742  -0.63567338    1.4207047 
   15050   0.44243625   -1.1442737  0.056847303  -0.64535879    1.5626815 
   15100    0.4491702   -1.1540729  0.061586515  -0.64369045     1.446693 
   15150   0.43760668   -1.1400143  0.066098441  -0.63667385    1.5923409 
   15200    0.4366312   -1.1440938   0.06055579  -0.64727067    1.6460511 
   15250   0.44121398   -1.1391468  0.059617233  -0.63868322    1.6461983 
   15300   0.44997843   -1.1402551  0.054473785  -0.63617785    1.5699286 
   15350   0.44002949   -1.1409863  0.061492738  -0.63983074    1.5192759 
   15400   0.43179783   -1.1273157  0.062136917  -0.63374083    1.6710325 
   15450   0.44691174   -1.1455089  0.052387572  -0.64658204    1.5070359 
   15500   0.44984269   -1.1490429  0.058834726  -0.64074038    1.6216015 
   15550   0.45856201   -1.1579249  0.067492995  -0.63225207    1.5210364 
   15600   0.46106118   -1.1551524   0.05890469  -0.63557079    1.5240423 
   15650    0.4449286   -1.1406658  0.060950676  -0.63515732     1.624315 
   15700   0.45602584   -1.1440374  0.057499122   -0.6308925    1.4943773 
   15750   0.45122351   -1.1415485  0.054727606  -0.63597344    1.6301457 
   15800   0.44392372   -1.1410655  0.060211435  -0.63730027    1.5264181 
   15850   0.43996205   -1.1393933  0.062825106   -0.6369728    1.6760796 
   15900   0.44496709   -1.1402124  0.067205036  -0.62841111     1.573914 
   15950   0.44605736   -1.1405439   0.06110547  -0.63375281    1.6115403 
   16000   0.45930874   -1.1442699  0.051066674  -0.63427725    1.6207175 
   16050   0.45869126   -1.1587279  0.063647988  -0.63677093    1.4468915 
   16100   0.45030951   -1.1390441  0.052154443  -0.63695543    1.6497673 
   16150   0.45343882    -1.152295  0.067564971  -0.63166909    1.4888819 
   16200   0.45602075    -1.150223  0.065429339   -0.6291529    1.4465151 
   16250   0.44401351   -1.1355317   0.06256615   -0.6293221    1.5653243 
   16300   0.44571522   -1.1348898   0.05838509  -0.63116093    1.5155151 
   16350   0.44549639   -1.1254856  0.050506487  -0.62985401    1.6107107 
   16400   0.45856548   -1.1435422  0.053410775  -0.63194811     1.500744 
   16450   0.44603316   -1.1283055  0.054891624  -0.62775245    1.5602178 
   16500   0.45084384   -1.1309533  0.055974415  -0.62451076    1.5789441 
   16550   0.44932024   -1.1446255  0.057672595  -0.63800714    1.6281386 
   16600   0.43282096   -1.1300344  0.065078485   -0.6324956    1.7378752 
   16650   0.44704022   -1.1494385  0.068797372   -0.6339734    1.5051876 
   16700   0.44932399    -1.142531   0.06373879   -0.6298427    1.5333702 
   16750   0.46469893   -1.1592725  0.060175409  -0.63478542    1.5340896 
   16800   0.45042066   -1.1228267  0.047534102  -0.62524728    1.7126038 
   16850    0.4543755   -1.1355665  0.056041637  -0.62552801    1.5872631 
   16900   0.44576082   -1.1338024  0.051102264  -0.63731073     1.652636 
   16950   0.45828158   -1.1535432  0.065170483  -0.63047302    1.4881276 
   17000   0.45565714   -1.1406277  0.055529875  -0.62982043     1.591356 
   17050   0.44849893   -1.1446322  0.063618152   -0.6328889    1.5419066 
   17100   0.44863366   -1.1416109  0.064441725  -0.62890937    1.5501115 
   17150   0.43463335   -1.1247986  0.062388695  -0.62813877    1.6100105 
   17200   0.45619951   -1.1542264  0.062436074  -0.63597095    1.4588892 
   17250   0.45338631   -1.1438228  0.056157266  -0.63465708    1.4970894 
   17300   0.45359436   -1.1509246  0.055638455  -0.64206976    1.5539718 
   17350   0.46014688   -1.1568421  0.055213193  -0.64186548    1.5247307 
   17400   0.44561829   -1.1416061   0.06198359  -0.63437562    1.5995295 
   17450    0.4411055   -1.1335396  0.056087146  -0.63671453    1.6609119 
   17500   0.44331232   -1.1360771  0.054431758  -0.63870248    1.6323351 
   17550   0.44888112   -1.1535754  0.061906873   -0.6431615    1.4576734 
   17600    0.4468013   -1.1495294  0.064887437  -0.63821303    1.5123139 
   17650   0.44936689    -1.157663  0.072993572  -0.63567701    1.4623196 
   17700   0.44948658   -1.1462727  0.065386123  -0.63177458     1.545608 
   17750   0.46279034   -1.1455428  0.052139683  -0.63099848    1.6025345 
   17800   0.44103506   -1.1382604  0.058989511  -0.63860331    1.5967477 
   17850   0.43428281   -1.1368116   0.06312808   -0.6397626    1.6089696 
   17900   0.44025475   -1.1413623  0.063761087  -0.63771336    1.5596118 
   17950   0.45759471   -1.1481996   0.06051306  -0.63047316    1.5370395 
   18000   0.44523384   -1.1454537  0.060782293  -0.63980858    1.6531938 
   18050   0.45023212   -1.1473915  0.058622965  -0.63891159     1.547323 
   18100   0.45182492   -1.1555124  0.064239873  -0.63982413    1.5798118 
   18150   0.43481401   -1.1431686  0.066453484  -0.64226349    1.6213188 
   18200   0.44471666   -1.1448359  0.066719636  -0.63377024    1.6701199 
   18250   0.44442656   -1.1428862  0.065682766  -0.63314725     1.576184 
   18300   0.45626164   -1.1521914  0.062830717  -0.63347923    1.5812898 
   18350   0.44305624   -1.1436066  0.062748217  -0.63817139    1.5790232 
   18400   0.45196145   -1.1449684  0.060700436  -0.63268311    1.5673485 
   18450   0.44333564   -1.1374602   0.06250829  -0.63198571    1.6117598 
   18500    0.4602611   -1.1567106  0.059116434   -0.6377166      1.46761 
   18550   0.43816594   -1.1499062  0.068957872  -0.64314749    1.5888812 
   18600   0.44584241   -1.1416447  0.061237703  -0.63493616    1.5628198 
   18650   0.44975795   -1.1387355  0.059383305  -0.62996909    1.5192694 
   18700   0.45946518   -1.1469067  0.056342486  -0.63148194    1.5406979 
   18750   0.45525262   -1.1452216  0.057048938  -0.63329944    1.5676597 
   18800   0.45454619   -1.1442152  0.054011424  -0.63603641    1.5793067 
   18850   0.45872125   -1.1509478  0.061320932  -0.63128791     1.527959 
   18900   0.43485598   -1.1242971  0.060231632  -0.62957187    1.6893488 
   18950   0.45629439   -1.1470081  0.051495641  -0.63959828    1.5196475 
   19000   0.44855449   -1.1450903  0.058855808  -0.63805381    1.5491218 
   19050   0.45003213   -1.1424786   0.05383997  -0.63898156    1.6278832 
   19100   0.44802606   -1.1490479  0.063047679  -0.63834754    1.5244706 
   19150    0.4391803    -1.135061  0.056868316  -0.63937834     1.579902 
   19200   0.44247198   -1.1405242   0.06141452  -0.63700646    1.5871202 
   19250   0.45613771   -1.1436067  0.062591013  -0.62525814    1.4469173 
   19300   0.45489171   -1.1511952  0.064745915  -0.63193669    1.4588378 
   19350   0.44230589    -1.145814  0.064665532  -0.63921119    1.5120865 
   19400   0.45259753   -1.1487213  0.064930719   -0.6315702     1.452592 
   19450   0.44707983   -1.1405236  0.058853423  -0.63496292    1.6251601 
   19500   0.44867834   -1.1533564  0.065167516  -0.63988442    1.5083742 
   19550    0.4499622   -1.1504942  0.063118725  -0.63778827    1.6025115 
   19600   0.45451774   -1.1514128  0.058266689  -0.63900713    1.5177461 
   19650    0.4507592   -1.1430548  0.054295865  -0.63837537    1.5606672 
   19700   0.45792516   -1.1447639   0.05239695  -0.63482343    1.5500569 
   19750   0.43570694   -1.1270592  0.057983701  -0.63373163    1.6579264 
   19800   0.45886703   -1.1539991  0.059530621  -0.63598388    1.5121067 
   19850   0.44709478   -1.1352318  0.057608956  -0.63090061    1.6428716 
   19900   0.46412752   -1.1548452  0.057413526  -0.63369097    1.5650486 
   19950    0.4591247   -1.1455064  0.056759512  -0.63000479    1.6452193 
   20000    0.4688066   -1.1682736  0.062306797  -0.63755083     1.455327 
   20050   0.45303584   -1.1532666  0.069286477  -0.63132183    1.4256788 
   20100   0.45631535     -1.15524  0.065542772  -0.63376218    1.5231721 
   20150   0.45661882   -1.1419212  0.049148893  -0.63653396    1.5419051 
   20200   0.46474329   -1.1512498  0.053287648  -0.63360614     1.480701 
   20250   0.45729575   -1.1696283  0.064029947  -0.64868372    1.5028587 
   20300    0.4559843   -1.1475158  0.056888686  -0.63502283    1.5394646 
   20350   0.44273247   -1.1361254  0.062368024  -0.63139383    1.5729481 
   20400   0.44693562   -1.1374734   0.05888333   -0.6320269    1.6413352 
   20450   0.45638749   -1.1431987  0.056598533  -0.63059298    1.5781138 
   20500   0.44152929   -1.1440193  0.063717618  -0.63914038    1.6432954 
   20550   0.45664406    -1.141907  0.051215972  -0.63442754    1.5590629 
   20600   0.44807326   -1.1379676  0.060296491   -0.6299712    1.5846658 
   20650   0.45794324   -1.1468601  0.055279434  -0.63401902    1.4907128 
   20700   0.45784266   -1.1485722  0.060793737  -0.63031738    1.4777118 
   20750   0.44781485   -1.1437887  0.067989778  -0.62835724    1.5955551 
   20800   0.45624646   -1.1567912  0.067536198  -0.63338872    1.5129313 
   20850   0.46091118   -1.1511441  0.061981649  -0.62863541    1.4607327 
   20900   0.45806967   -1.1532657  0.062769168  -0.63280854    1.4999343 
   20950   0.43498827   -1.1366508  0.068910903  -0.63311409    1.5538006 
   21000   0.45991539   -1.1417101  0.056518484  -0.62565954    1.5514506 
   21050   0.43592518   -1.1406349  0.064661878   -0.6404111    1.6749376 
   21100   0.46546633   -1.1546837  0.058447462  -0.63115781    1.4844269 
   21150   0.44896369   -1.1482242  0.065420695  -0.63421395    1.5674488 
   21200     0.452975   -1.1429343   0.05244886   -0.6378879    1.5604184 
   21250    0.4608904   -1.1533337  0.062277466  -0.63054995    1.4960366 
   21300   0.44779266   -1.1465523  0.068653037  -0.63047979    1.5655843 
   21350   0.45986777   -1.1564385  0.060252463  -0.63670145     1.609568 
   21400   0.45095529   -1.1438134  0.064621382   -0.6286125    1.5424762 
   21450   0.44660139   -1.1400105  0.063750693  -0.63003055    1.6098161 
   21500   0.45980214   -1.1426928  0.052538266  -0.63073561     1.552308 
   21550   0.46391134   -1.1591338  0.061592578  -0.63401646    1.5110554 
   21600   0.45730805   -1.1580614  0.062052908  -0.63908157    1.5252445 
   21650   0.44098278   -1.1363478  0.056787237  -0.63894523    1.7053095 
   21700   0.45573501   -1.1521643  0.059341123  -0.63746796    1.5609108 
   21750   0.46793511    -1.153142  0.052600443   -0.6329964    1.5937356 
   21800   0.44714974   -1.1317173  0.053257637  -0.63168254    1.5983351 
   21850    0.4468553   -1.1304168  0.053508103  -0.63042577    1.6208939 
   21900   0.43975026   -1.1395314  0.062636108   -0.6375115    1.5417495 
   21950   0.43763131    -1.139929  0.064839166   -0.6378232    1.5562807 
   22000   0.44932415    -1.151159  0.066911334  -0.63529797    1.4135788 
   22050    0.4511084   -1.1435861  0.058444132  -0.63440947    1.4834847 
   22100   0.45048069   -1.1497671  0.064190514  -0.63547125      1.48908 
   22150   0.44723408   -1.1432368  0.058318983  -0.63805648    1.6081441 
   22200   0.44462377   -1.1435445  0.062525049  -0.63676623    1.5915771 
   22250   0.44050473   -1.1376994  0.058757451  -0.63880432    1.6781716 
   22300   0.45491689   -1.1485035  0.055099545  -0.63886621    1.5935214 
   22350   0.44681523   -1.1382556  0.057934315  -0.63387839    1.5797584 
   22400   0.46096059   -1.1533645    0.0591226  -0.63366548    1.4609566 
   22450   0.45102649   -1.1487097  0.066766893  -0.63129216    1.5031453 
   22500   0.45577973   -1.1482378   0.06544462  -0.62739331    1.4125358 
   22550   0.46006985   -1.1463151  0.059042369  -0.62758628    1.4884821 
   22600   0.45490322   -1.1497538  0.061804102  -0.63342556     1.476025 
   22650   0.44913581   -1.1471021  0.066008478  -0.63233214    1.5529831 
   22700   0.44456391   -1.1375516  0.058695362   -0.6346628    1.6775124 
   22750   0.45069781   -1.1529503   0.06836129  -0.63426678    1.4616898 
   22800         0.45   -1.1720798  0.064415497  -0.65803934    1.3843339 
   22850   0.44769316   -1.1490572   0.04718544  -0.65455166    1.5079185 
   22900         0.45   -1.1388219  0.062719663   -0.6264772    1.5818682 
   22950   0.45853412   -1.1502642  0.063431614  -0.62868056    1.5030045 
   23000   0.46066478   -1.1424244  0.058930146  -0.62321333    1.5069547 
   23050   0.45841088   -1.1458966   0.06308957  -0.62477818    1.5160912 
   23100   0.45179381   -1.1384091  0.055483892  -0.63150787     1.640055 
   23150   0.45668728   -1.1447874  0.057160376  -0.63132034    1.5620107 
   23200   0.46547418   -1.1460491  0.051487988  -0.62947482    1.5674417 
   23250   0.45335976   -1.1344559  0.053394783  -0.62807912    1.7004038 
   23300   0.45927963   -1.1466501  0.051635629  -0.63611753    1.6601806 
   23350   0.43916219   -1.1306738  0.058743694  -0.63313391    1.6422639 
   23400   0.45437952   -1.1533629  0.068914818  -0.63044721    1.4023581 
   23450   0.44785407   -1.1365679  0.066694206  -0.62239286    1.5348164 
   23500   0.44940115   -1.1374317  0.059890567  -0.62851447    1.6165814 
   23550    0.4572157   -1.1439732  0.057928902  -0.62920966    1.6080037 
   23600   0.45603755   -1.1470346  0.062338142  -0.62903889    1.5186222 
   23650   0.45668399   -1.1393924  0.059629484  -0.62345945    1.6135187 
   23700   0.45636621   -1.1493041   0.06077866  -0.63253949    1.4847223 
   23750   0.46774784   -1.1460801  0.058954792  -0.61976722    1.4620907 
   23800   0.45592523   -1.1447792  0.066411975  -0.62282189    1.5605123 
   23850   0.47709827   -1.1614401  0.055497993  -0.62924139    1.4801419 
   23900   0.45147395   -1.1412847  0.064673844  -0.62551312    1.5247667 
   23950   0.46040438   -1.1458153  0.062685561  -0.62310904    1.4887253 
   24000   0.45372807   -1.1395432  0.062824103   -0.6233691    1.5446631 
   24050   0.47061439   -1.1614778  0.062155368  -0.62910023    1.3816279 
   24100    0.4530901   -1.1397281  0.067609662  -0.61940588    1.4983424 
   24150   0.45461675   -1.1481237  0.063920451  -0.62996534    1.4346767 
   24200   0.45340849   -1.1390275  0.058126052  -0.62787085     1.537466 
   24250   0.46079282   -1.1479702    0.0603644  -0.62719695    1.5155833 
   24300   0.46327033   -1.1481581  0.063863871  -0.62140992    1.5501327 
   24350   0.46630743   -1.1538654  0.060501416  -0.62744518    1.5525335 
   24400   0.45849236   -1.1374517  0.056107185  -0.62323425    1.5281845 
   24450   0.47492481   -1.1684919  0.061058094  -0.63290475     1.377167 
   24500   0.44410084   -1.1419573  0.063114402  -0.63511211    1.6376321 
   24550   0.45417019   -1.1521835  0.068447813  -0.62994401    1.5314136 
   24600   0.44493777    -1.132968  0.062410531   -0.6259905    1.5942475 
   24650   0.45022326    -1.138631  0.067971125  -0.62081182    1.4972254 
   24700   0.46293231   -1.1542801  0.066266749  -0.62546679    1.4903154 
   24750   0.47116071   -1.1504335  0.056992027  -0.62267341    1.5144233 
   24800   0.45878771   -1.1608742  0.071961574  -0.63050725    1.4918624 
   24850   0.44012278   -1.1319072  0.072330725  -0.61982044    1.5948689 
   24900   0.44370242   -1.1273554  0.058835064   -0.6251877    1.6785674 
   24950    0.4474487   -1.1316747  0.064920012  -0.61967884    1.5783104 
   25000   0.44283126   -1.1312215  0.066150435  -0.62260881    1.5996968 
   25050   0.44617958   -1.1332732  0.060762035  -0.62670344    1.6152798 
   25100   0.44744483   -1.1252104  0.056826148  -0.62131228    1.6235745 
   25150   0.45579723   -1.1445926  0.059143886  -0.63003129    1.5954065 
   25200   0.44570272   -1.1312406   0.06242196  -0.62348736    1.6459606 
   25250   0.46003424    -1.147679  0.064981771  -0.62304633    1.5895478 
   25300   0.44869703   -1.1297109  0.058663015  -0.62272475    1.5816196 
   25350   0.45223186   -1.1320413  0.060800354  -0.61938591     1.559843 
   25400   0.44641805   -1.1336073  0.068151711  -0.61940955    1.5519135 
   25450   0.44690424   -1.1268201  0.055660649  -0.62462764    1.6616616 
   25500   0.45311954   -1.1413477  0.066278532  -0.62232726    1.5695529 
   25550   0.47144469   -1.1480245  0.049782349  -0.62719037    1.5952747 
   25600   0.44821473   -1.1364853  0.064652585  -0.62399152    1.5911358 
   25650   0.46593021   -1.1497291  0.052364832  -0.63182236      1.50908 
   25700   0.45265094   -1.1455267  0.068492491   -0.6247605    1.5978611 
   25750   0.46642945   -1.1551772  0.058259277  -0.63087716    1.5399958 
   25800   0.43667207   -1.1297884  0.063510458   -0.6299698    1.7826742 
   25850   0.45207082   -1.1391241  0.052882954  -0.63454703    1.6997983 
   25900   0.45619544   -1.1447178  0.059144283  -0.62975824     1.683633 
   25950   0.46094692   -1.1523224  0.065434699  -0.62632494    1.5690685 
   26000   0.45564836   -1.1431635  0.060295759  -0.62759908    1.5728734 
   26050   0.45972085   -1.1497745   0.05763128  -0.63280545    1.4626067 
   26100   0.45817093   -1.1421403  0.060951053  -0.62340013    1.5986253 
   26150   0.45331039   -1.1365356  0.062722287  -0.62088068    1.5944959 
   26200   0.45737315    -1.154244  0.070204248  -0.62704775    1.4014596 
   26250   0.46014905   -1.1537924  0.062280401  -0.63174642    1.4778102 
   26300   0.46487544   -1.1514096  0.061204003  -0.62571756    1.5457039 
   26350   0.46479538   -1.1578028   0.06561781  -0.62777693    1.4271038 
   26400   0.45154108   -1.1393081  0.057902717  -0.63024059    1.6074606 
   26450   0.45652208   -1.1440101  0.064169423  -0.62369905    1.6037485 
   26500   0.45803031   -1.1419343  0.055529269  -0.62875639    1.5659662 
   26550   0.45938771   -1.1323938  0.054596621  -0.61879233    1.5699052 
   26600   0.45189472   -1.1374269  0.062940672  -0.62296811     1.625475 
   26650   0.46037168   -1.1469281  0.064089454  -0.62285056    1.5406617 
   26700   0.46158415    -1.143269  0.061760595  -0.62030887    1.5164249 
   26750   0.45347362   -1.1405963  0.059674388  -0.62782622    1.5394782 
   26800   0.43631123   -1.1259088  0.064741693   -0.6252195    1.6675881 
   26850   0.44164603   -1.1310826  0.064389451   -0.6254152    1.6706209 
   26900   0.46730564   -1.1470714  0.062615286   -0.6175399    1.4609658 
   26950   0.46842762   -1.1359918  0.053640364  -0.61431416    1.5894202 
   27000   0.45991886   -1.1443966  0.061866373  -0.62299468    1.5338212 
   27050   0.44206627   -1.1371556  0.071747119  -0.62371058    1.6219624 
   27100   0.46181448   -1.1464724  0.062143574  -0.62289923    1.6215536 
   27150   0.46729336   -1.1439797  0.057226774  -0.61984901    1.6446149 
   27200   0.46071049   -1.1464798  0.062106015  -0.62404722    1.6246179 
   27250   0.46554125   -1.1459394  0.060956301  -0.61982977    1.5662832 
   27300         0.45   -1.1543177  0.059308823  -0.64538389    1.4637901 
   27350   0.44998648   -1.1573225  0.054280216  -0.65343084    1.4756017 
   27400    0.4464938   -1.1506624  0.061586151  -0.64295451    1.4523631 
   27450    0.4457206   -1.1441124  0.050126247  -0.64863703    1.5443139 
   27500   0.44902271   -1.1546098  0.063168188  -0.64279309    1.4033646 
   27550   0.45021842   -1.1620605  0.064485234  -0.64773204    1.3810172 
   27600   0.44190098   -1.1492047  0.062864067  -0.64480793    1.4588112 
   27650     0.449133   -1.1514951  0.060825255  -0.64191109    1.5079264 
   27700   0.43807753   -1.1482022  0.059534479  -0.65095522    1.5561993 
   27750    0.4208783   -1.1413591  0.063738638  -0.65709285    1.6596665 
   27800   0.46406231   -1.1700984  0.057389525  -0.64903332    1.4341819 
   27850   0.45314688   -1.1460487  0.049844775  -0.64343462    1.4581689 
   27900   0.45735091   -1.1629982  0.054468891  -0.65155953    1.3911168 
   27950   0.45550677   -1.1658124  0.058299976  -0.65238524    1.4256495 
   28000    0.4550911   -1.1576967  0.057336684  -0.64564814    1.4673195 
   28050   0.44490886   -1.1656462  0.062712486  -0.65839561    1.5414492 
   28100   0.43917283   -1.1473408  0.058100195   -0.6504337    1.5799619 
   28150   0.43941539   -1.1474756  0.058228358  -0.65019803     1.538763 
   28200         0.45   -1.1362784   0.05760884  -0.62904453    1.6907343 
   28250   0.44655149   -1.1354246   0.06083185  -0.62841335    1.6113993 
   28300   0.44760927   -1.1384608  0.059102321  -0.63212219    1.5172994 
   28350   0.46034245   -1.1458452    0.0560517  -0.62983464    1.5868628 
   28400   0.46341714   -1.1601068  0.068511316  -0.62856447     1.456147 
   28450   0.45769084   -1.1539426  0.062927513  -0.63370563    1.4925578 
   28500   0.46271094   -1.1509233  0.058870903  -0.62972706    1.4500098 
   28550   0.45657247   -1.1380126  0.051413938  -0.63040667    1.6152048 
   28600   0.45640383   -1.1465991  0.061901064  -0.62867454    1.4790559 
   28650   0.45050356   -1.1367556  0.060939585  -0.62568789    1.5330369 
   28700   0.46629692   -1.1525245  0.056184687  -0.63043146    1.5700532 
   28750   0.44992124   -1.1433824  0.063828672  -0.63000739    1.5551754 
   28800   0.46884496   -1.1609601  0.062996072  -0.62950977    1.5053029 
   28850   0.43757144   -1.1301256  0.062497781  -0.63042102    1.5676419 
   28900   0.45720945   -1.1391267  0.052123673  -0.63017463    1.5493162 
   28950   0.45532395    -1.140847  0.059603846  -0.62629859    1.5068482 
   29000   0.46251254   -1.1546945  0.058909109  -0.63365832    1.4733948 
   29050   0.45755064   -1.1466021  0.057763297  -0.63166944    1.5803462 
   29100   0.45100316   -1.1407162  0.061934942  -0.62815392     1.537173 
   29150   0.46059277   -1.1507989  0.060664889  -0.62992502     1.540179 
   29200   0.45273604   -1.1443305  0.063983062  -0.62798867    1.5560486 
   29250   0.44375157   -1.1435552  0.066255091  -0.63391828    1.6110666 
   29300   0.45310199   -1.1416109  0.056539609  -0.63234691    1.5699495 
   29350   0.46060715    -1.144057  0.054837329  -0.62899633    1.5640455 
   29400   0.44558836   -1.1304868  0.060256426  -0.62501333    1.6555661 
   29450   0.45710681   -1.1479936  0.062067357   -0.6292004    1.4715254 
   29500   0.46076232   -1.1503937  0.056196783  -0.63381856    1.5074685 
   29550   0.45945745   -1.1465172  0.053695936  -0.63374675    1.5887099 
   29600   0.45038649   -1.1351748  0.050799129  -0.63436449    1.6850485 
   29650   0.46349408   -1.1480388  0.053562503  -0.63136848    1.5943425 
   29700   0.45153995   -1.1407744  0.066101765  -0.62350895    1.5277671 
   29750   0.46192822   -1.1517505   0.06415268  -0.62605454    1.4751377 
   29800         0.45   -1.1571539  0.050953111  -0.65657579    1.4196227 
   29850    0.4572697   -1.1682529  0.057161556   -0.6542027      1.34206 
   29900   0.45004744   -1.1626535  0.060429913  -0.65255123     1.423894 
   29950   0.42642783   -1.1421506  0.059432876  -0.65664522    1.5337051 
   30000   0.43313419   -1.1385973  0.055152592  -0.65067151     1.583941 
   30050   0.45093176   -1.1603603  0.056282486  -0.65352182    1.3976954 
   30100   0.44829199   -1.1677781  0.064242498  -0.65561714    1.3706304 
   30150   0.46337776   -1.1698271  0.052182157  -0.65465329    1.4111459 
   30200   0.44101651    -1.161796  0.061642612  -0.65950441    1.4971011 
   30250   0.43970598   -1.1529878  0.061135319  -0.65251289    1.5076562 
   30300   0.43458318   -1.1482749  0.057558687  -0.65649519    1.5186087 
   30350   0.44978353   -1.1652052  0.059259297  -0.65653723    1.4904582 
   30400   0.43360687   -1.1394095  0.051511444  -0.65465249    1.5735005 
   30450   0.44911335   -1.1532308  0.054515239   -0.6499765    1.4475392 
   30500   0.44443899   -1.1399629  0.045486842  -0.65040747    1.5594776 
   30550   0.44418273   -1.1522062  0.060098661  -0.64829499    1.4684728 
   30600   0.45558545   -1.1511151  0.052091225  -0.64381803    1.4886304 
   30650   0.46034421   -1.1650823   0.06027101  -0.64485073     1.408202 
   30700   0.44368547    -1.149513   0.05742194  -0.64877535    1.4360261 
   30750   0.45084461   -1.1684799  0.059493096  -0.65851788    1.5025068 
   30800   0.43726802   -1.1582533  0.063715363  -0.65763429    1.4996904 
   30850   0.44586049   -1.1574366   0.05913481  -0.65281282    1.4432587 
   30900   0.44398708   -1.1637438  0.067066518  -0.65306015    1.4891898 
   30950   0.44484157   -1.1483949  0.052256096  -0.65166792    1.5118517 
   31000   0.46399113   -1.1735683  0.052483105  -0.65748068    1.3593341 
   31050   0.44384586   -1.1562324   0.06097278  -0.65178368    1.4679287 
   31100   0.43407005     -1.14981  0.062501004  -0.65360067    1.5635018 
   31150   0.44427309   -1.1546294  0.057268416  -0.65345814    1.5642198 
   31200         0.45   -1.1336871  0.055001389  -0.62906075    1.6493496 
   31250   0.45489112   -1.1513754  0.068975897  -0.62788748    1.4869694 
   31300   0.45366736   -1.1453327  0.061738639  -0.63030471    1.6160815 
   31350   0.46395615   -1.1587804  0.058945742   -0.6362651    1.4845382 
   31400    0.4596104   -1.1495358  0.058733986  -0.63157441    1.5159285 
   31450   0.46591998   -1.1550357  0.063165224  -0.62633877    1.4822555 
   31500         0.45   -1.1549179  0.055367573  -0.64992537    1.4948685 
   31550   0.45451631   -1.1508392  0.054124833   -0.6425768    1.4709689 
   31600   0.45170433   -1.1579977  0.062512607  -0.64415714    1.4350156 
   31650   0.44047477   -1.1473422  0.060079411  -0.64715505    1.5057977 
   31700   0.43908735   -1.1431928   0.05799479  -0.64647656    1.5577259 
   31750   0.45249096   -1.1502315  0.058831955  -0.63928562    1.4347063 
   31800   0.45657513   -1.1595175  0.055395437  -0.64792738    1.4199758 
   31850   0.43172272   -1.1438991  0.066082516  -0.64645359    1.5510899 
   31900   0.45389977   -1.1604678  0.059961479  -0.64698481    1.4467371 
   31950   0.45312755   -1.1643944  0.062841554  -0.64880293    1.5176731 
   32000   0.45564876   -1.1612996  0.060441061  -0.64558949    1.4864642 
   32050   0.45184502    -1.153782  0.058806324  -0.64350717    1.4940824 
   32100   0.44734836   -1.1500668  0.062296836  -0.64079436    1.5113515 
   32150   0.46902814   -1.1705348  0.057375128  -0.64452243     1.348272 
   32200   0.44442986   -1.1434142  0.055408124  -0.64394661    1.4036556 
   32250   0.44330572   -1.1488609  0.063765076  -0.64215957    1.5217967 
   32300   0.43673653   -1.1455336  0.057233691  -0.65192738    1.5184291 
   32350   0.45144058    -1.156145  0.057661436  -0.64741914    1.4004251 
   32400    0.4438541    -1.154348  0.062613388  -0.64825044    1.4480722 
   32450   0.43975499   -1.1516672   0.06599307  -0.64628557    1.5008189 
   32500   0.43654773   -1.1589825   0.06860784  -0.65419073    1.5096207 
   32550   0.44691475   -1.1632818  0.066989574  -0.64974995    1.4112437 
   32600   0.43783739   -1.1429067  0.057642108  -0.64779205    1.4580269 
   32650    0.4434502   -1.1547236   0.06041317  -0.65122978    1.4682972 
   32700   0.43571672    -1.141572  0.059775354  -0.64644298    1.5518987 
   32750   0.44686338   -1.1490272  0.055387504  -0.64714869    1.4651974 
   32800   0.44251357   -1.1510749  0.061071415  -0.64785869    1.4721318 
   32850   0.44245202   -1.1445258   0.05685063  -0.64559188    1.5283602 
   32900   0.45282039   -1.1593467  0.058094815  -0.64880884    1.3957096 
   32950   0.44416013   -1.1608177  0.067904501  -0.64912323    1.3953102 
   33000   0.44019377   -1.1496914  0.058943276  -0.65092113    1.4998892 
   33050   0.44302651   -1.1549031   0.05496143  -0.65728432     1.565424 
   33100    0.4409795   -1.1531835  0.058029169   -0.6545423     1.439072 
   33150   0.41916799   -1.1387144  0.068382902  -0.65151281    1.6288312 
   33200   0.44035241    -1.144626  0.052088008  -0.65255252    1.5901472 
   33250   0.44018171   -1.1457413  0.059202962  -0.64672342    1.4649869 
   33300   0.43876581   -1.1444024  0.061720394  -0.64428188    1.5072715 
   33350   0.44994369   -1.1546046  0.059245417  -0.64579045    1.3941751 
   33400   0.44522461   -1.1581082  0.062058658  -0.65119597    1.4140146 
   33450   0.43681618   -1.1466655  0.060688695  -0.64952462    1.4337376 
   33500   0.44624261   -1.1645072  0.061871326  -0.65676514    1.3709821 
   33550   0.44591603   -1.1647065  0.057979768   -0.6611823    1.3634918 
   33600         0.45   -1.1386959  0.058951053  -0.63011986    1.5674756 
   33650   0.45846353   -1.1405121  0.057470382  -0.62496024    1.4883049 
   33700   0.45682778   -1.1435035  0.058638957  -0.62841749    1.5987332 
   33750   0.45200966   -1.1457109  0.066698776  -0.62737915    1.5458492 
   33800   0.44375522   -1.1303586  0.060483804  -0.62648939     1.656863 
   33850   0.44901374   -1.1379535  0.066228213  -0.62308569    1.5507307 
   33900   0.46875162   -1.1421179  0.053683478  -0.62007342    1.5519907 
   33950   0.46833672   -1.1474337  0.057355979  -0.62213133    1.5788757 
   34000   0.45296596   -1.1374237  0.063823461  -0.62101172    1.5754506 
   34050   0.43815781   -1.1295471  0.071433289  -0.62032112    1.5411844 
   34100   0.45714934   -1.1446306  0.066937149  -0.62092503    1.5828415 
   34150   0.45900713   -1.1478727  0.061578291  -0.62766981    1.5306921 
   34200   0.45113088   -1.1426855  0.066061715  -0.62586881    1.5664533 
   34250   0.44859666   -1.1437987  0.070471565  -0.62510435    1.4930042 
   34300   0.44383406   -1.1279069  0.059698399  -0.62474432    1.6459983 
   34350   0.45657825   -1.1437549  0.063647834  -0.62390934    1.6423758 
   34400   0.45612954   -1.1364965  0.057105042  -0.62364201    1.6100454 
   34450   0.45623484   -1.1452319  0.065409181  -0.62396805    1.5259982 
   34500   0.45864198   -1.1410661  0.059985073  -0.62282126    1.5982522 
   34550   0.45198399    -1.126731  0.054277308  -0.62084634    1.6981075 
   34600         0.45   -1.1537458  0.056560456  -0.64756031    1.5662876 
   34650   0.44548335   -1.1540994  0.058542946  -0.65044433    1.4570241 
   34700   0.45736435   -1.1568569  0.057596248  -0.64227742    1.4408889 
   34750   0.44833823   -1.1489098  0.062362618  -0.63858259    1.4965556 
   34800   0.44454184   -1.1503193  0.061627006  -0.64452089    1.5314259 
   34850   0.44102219    -1.150457  0.062984983  -0.64681738    1.5697331 
   34900   0.44727848   -1.1459666  0.059995503  -0.63906532    1.5343042 
   34950   0.44886955   -1.1552646  0.059763084  -0.64700603    1.5843894 
   35000   0.45736148   -1.1614642  0.055523977  -0.64895986    1.4711062 
   35050   0.45103406      -1.1615  0.062414927  -0.64842685    1.4246782 
   35100    0.4486791   -1.1566716  0.058988917  -0.64937748    1.5086077 
   35150   0.43997903   -1.1402813  0.058123121   -0.6425458     1.581452 
   35200   0.45158969   -1.1494747  0.048566743  -0.64969461    1.6518689 
   35250   0.43844513   -1.1372986  0.051046208  -0.64817264    1.7371718 
   35300   0.45531815   -1.1518944  0.054911177  -0.64204448    1.4848105 
   35350   0.46390167   -1.1544237    0.0518273  -0.63908131    1.4823473 
   35400   0.46311349   -1.1615601  0.054378896  -0.64445366    1.4361493 
   35450   0.44206165   -1.1513027  0.065125608  -0.64448381    1.5241803 
   35500   0.46399008   -1.1708437  0.063270444  -0.64396986    1.3783052 
   35550   0.45306604   -1.1579769  0.060440504  -0.64484796    1.4430633 
   35600   0.45105079   -1.1586515   0.06399619  -0.64398041    1.3832166 
   35650   0.44931868   -1.1552335  0.059337324  -0.64695196    1.4479835 
   35700   0.45266219   -1.1551681  0.055810855  -0.64707226    1.4839857 
   35750   0.44969953   -1.1493859  0.052924581  -0.64713656    1.4512603 
   35800   0.44564301   -1.1426279  0.052097768  -0.64525854     1.623555 
   35850   0.46590554   -1.1621845  0.050901199  -0.64576597    1.4814303 
   35900   0.44681868   -1.1439189  0.055970277  -0.64150231    1.5615321 
   35950   0.43861022   -1.1624208  0.075002798  -0.64917328    1.5637259 
   36000   0.44982895    -1.152333   0.05925586  -0.64362309    1.5111025 
   36050   0.43593608   -1.1319438  0.055138602  -0.64123235    1.6459252 
   36100    0.4479987   -1.1564588  0.062557749  -0.64627564    1.4711292 
   36150   0.45683839    -1.154131  0.053563188  -0.64411016     1.534238 
   36200   0.45565892   -1.1556197  0.057180105  -0.64316042    1.5475942 
   36250   0.44732415   -1.1546345  0.063241912  -0.64444124    1.5288213 
   36300   0.45732612    -1.155685   0.05578266  -0.64295731    1.5458157 
   36350   0.43907443   -1.1449186  0.062907419  -0.64330266    1.6274078 
   36400   0.45833309   -1.1527514  0.049341983  -0.64545824    1.5420468 
   36450   0.44622395   -1.1567547  0.059203554  -0.65169907    1.5486582 
   36500   0.45290644   -1.1642777  0.063043038  -0.64870562    1.5527365 
   36550   0.44088013   -1.1517614  0.064494964  -0.64675369     1.588615 
   36600   0.45161316   -1.1497288  0.057769379  -0.64072263    1.4868269 
   36650    0.4460599    -1.147971  0.057127869  -0.64515491    1.5156458 
   36700   0.45634427   -1.1576585  0.054293717  -0.64740082    1.5043398 
   36750   0.44390385   -1.1382551  0.059706923   -0.6350142    1.5063243 
   36800     0.437996    -1.142373  0.060364607  -0.64437737    1.5958004 
   36850   0.43929505   -1.1376813  0.059007722   -0.6397446    1.5814231 
   36900   0.45428773   -1.1448582  0.052810505  -0.63813856     1.472626 
   36950   0.43825172   -1.1433928  0.060050608  -0.64545568     1.579308 
   37000   0.44648323   -1.1488453  0.061177992  -0.64155619    1.5555094 
   37050   0.45140046   -1.1461611  0.055711985  -0.63942482    1.5535641 
   37100   0.43553587   -1.1296138  0.057271382  -0.63716946    1.6277184 
   37150   0.45694313   -1.1470226  0.056992059  -0.63346822    1.4437197 
   37200    0.4492555      -1.1593  0.065624073  -0.64479485    1.4500571 
   37250   0.44640247   -1.1508765  0.060740814  -0.64410521    1.5790902 
   37300   0.44968681   -1.1534413  0.062126954  -0.64200227      1.45382 
   37350   0.46540556   -1.1574969  0.053489434  -0.63898974    1.4072405 
   37400   0.44919955   -1.1508897  0.061765307  -0.64029918    1.4995221 
   37450    0.4342953   -1.1309376  0.064286222  -0.63271795    1.5592668 
   37500   0.44967659   -1.1486505  0.056536433  -0.64281222     1.471317 
   37550   0.46326559   -1.1524742  0.051456153  -0.63813854    1.4424083 
   37600   0.44806463     -1.14222  0.056232069  -0.63829668    1.4945434 
   37650   0.43768803    -1.141419  0.061473982  -0.64262175    1.5642627 
   37700   0.43844966   -1.1452397   0.06315839  -0.64399698    1.5778632 
   37750    0.4487585   -1.1467927  0.062679516  -0.63572861    1.4633037 
   37800   0.43314526   -1.1393042  0.067818119  -0.63870179     1.498125 
   37850   0.44705591   -1.1512414  0.065830983  -0.63872704    1.4271727 
   37900   0.44361866   -1.1451545  0.060772147  -0.64113342    1.4786018 
   37950   0.44771585   -1.1548141  0.063990471  -0.64348084    1.5038648 
   38000   0.45365875    -1.156085  0.060317685  -0.64248663    1.4739489 
   38050   0.46279136   -1.1578985  0.052386157  -0.64310661    1.4096061 
   38100   0.44448903    -1.147881  0.062847444  -0.64091496    1.4505034 
   38150    0.4503902   -1.1437315  0.051563214  -0.64215341    1.5535435 
   38200   0.43980274   -1.1446843  0.063483916  -0.64176411    1.5145518 
   38250    0.4616519   -1.1588224  0.058339954  -0.63921523    1.4538155 
   38300   0.45343406   -1.1546976  0.067021976  -0.63461945    1.3917171 
   38350   0.43708539    -1.147736  0.067909896  -0.64310494    1.5397357 
   38400   0.45265089   -1.1479423  0.057888381  -0.63778025    1.4603591 
   38450   0.45292905   -1.1554495  0.063305159  -0.63959269    1.4669139 
   38500   0.45138872   -1.1494193  0.058156411  -0.64025037    1.4945406 
   38550   0.45584235   -1.1585424  0.055301288  -0.64777865    1.5200313 
   38600   0.45149381   -1.1579177  0.058295697  -0.64850442      1.44983 
   38650   0.43623769   -1.1457312  0.066302046  -0.64355503     1.528863 
   38700   0.45004958   -1.1477767  0.066916372   -0.6311858    1.3965289 
   38750   0.44048697   -1.1393086  0.061029582  -0.63815916    1.5784939 
   38800   0.46399741   -1.1561288  0.055177589  -0.63734047    1.4724892 
   38850   0.43548841   -1.1441778  0.072379346  -0.63667298    1.4829264 
   38900    0.4579155   -1.1538316  0.056489572  -0.63980812    1.5679754 
   38950   0.45185212   -1.1422861  0.052751343   -0.6380592    1.6207104 
   39000   0.45622486    -1.154483  0.056709175  -0.64192911    1.5007862 
   39050   0.46053951    -1.159039  0.058153787  -0.64072951    1.4307351 
   39100   0.45433899   -1.1615896  0.067532051  -0.64009715    1.4121168 
   39150   0.43974133   -1.1482503  0.067155274  -0.64172015    1.6088667 
   39200   0.44465716   -1.1565229  0.068107101   -0.6441292    1.4815122 
   39250    0.4420024   -1.1408423  0.061009459  -0.63819875    1.5548766 
   39300   0.43606393   -1.1436729  0.062519862  -0.64545252    1.6393982 
   39350   0.44472414   -1.1473617  0.064064711  -0.63894344     1.531023 
   39400         0.45   -1.1344935  0.075641277  -0.60922722    1.6741394 
   39450   0.46916745    -1.140784  0.062409799  -0.60959771    1.5576471 
   39500    0.4582371   -1.1393131  0.067000757  -0.61445709     1.615256 
   39550   0.46710292   -1.1430451  0.069303258  -0.60702819    1.5337222 
   39600         0.45   -1.1405306  0.059172638  -0.63173298     1.684945 
   39650   0.44986429   -1.1391214  0.057688354  -0.63194363    1.6562155 
   39700   0.45087576   -1.1579551  0.071997625  -0.63545743    1.4953845 
   39750   0.46303773   -1.1660421  0.071427339  -0.63196285      1.41099 
   39800    0.4554152   -1.1516928  0.067439942  -0.62921716    1.4578802 
   39850   0.45843935   -1.1503812  0.063338091  -0.62898577    1.4661183 
   39900   0.45991203   -1.1534336  0.061228471  -0.63267637    1.4870168 
   39950   0.46125967   -1.1455436  0.056054653  -0.62861362    1.4682852 
   40000   0.44834406   -1.1407047  0.062017542  -0.63071675    1.5442349 
   40050   0.45957609    -1.148724  0.054371107   -0.6351598    1.5312801 
   40100   0.43821292   -1.1381285  0.060619071  -0.63966173    1.6353525 
   40150   0.45559899   -1.1484958  0.059218534  -0.63405799    1.5074233 
   40200   0.45045581   -1.1454478  0.062302281  -0.63306506    1.5032675 
   40250   0.45416328   -1.1515952  0.061276539  -0.63653384    1.5180507 
   40300   0.45513645   -1.1517489  0.064521245   -0.6324705    1.4692531 
   40350   0.45654082   -1.1437782  0.058515657  -0.62910221    1.5315235 
   40400    0.4617329   -1.1623356  0.069175561  -0.63181191    1.4364119 
   40450   0.45572145   -1.1533045  0.066761934  -0.63120092    1.5237736 
   40500   0.44134373   -1.1412155  0.066145597  -0.63409393    1.6343241 
   40550   0.47678719   -1.1647737  0.058464886  -0.62991899    1.4528221 
   40600   0.45973538   -1.1483094  0.056818543  -0.63213856    1.5449244 
   40650    0.4545021   -1.1542504  0.069651959  -0.63047506    1.4835053 
   40700   0.45028131   -1.1474225  0.063965653  -0.63355078    1.5607758 
   40750   0.46911032   -1.1507501   0.05424243  -0.62778826     1.506664 
   40800   0.44779407   -1.1333398  0.058975679  -0.62694317    1.5693245 
   40850   0.44715733   -1.1372437  0.064523035  -0.62593593    1.5718449 
   40900   0.44126851   -1.1377297  0.063088846  -0.63374006    1.5191781 
   40950   0.44978534   -1.1349193  0.059447691  -0.62606112    1.5821724 
   41000    0.4474533   -1.1394312  0.065570965  -0.62677982    1.4964651 
   41050   0.44541132    -1.141846  0.067614164  -0.62919166     1.528389 
   41100    0.4670308   -1.1565588  0.057328682  -0.63258847      1.50514 
   41150   0.46441281   -1.1532114  0.059154662  -0.63003091    1.4814179 
   41200   0.45278243   -1.1497496  0.063049149  -0.63429537    1.5474168 
   41250   0.46762677   -1.1567676    0.0608027  -0.62872784    1.4630763 
   41300   0.45036461   -1.1516772  0.065667867  -0.63602006    1.5652443 
   41350   0.46587484   -1.1558289  0.059184894  -0.63115736    1.5134773 
   41400   0.45548174    -1.158019  0.066543042  -0.63637383     1.509213 
   41450   0.45216922   -1.1471042  0.061204929  -0.63410685    1.6193198 
   41500   0.44355199    -1.144274  0.068676104  -0.63241552    1.6065466 
   41550   0.44666621   -1.1449919  0.060963084  -0.63773487    1.6585603 
   41600   0.44184734   -1.1479238  0.067070484  -0.63937418    1.5379166 
   41650   0.45361137   -1.1337087  0.051553732  -0.62892162    1.5797795 
   41700   0.45024177   -1.1438649  0.065974062  -0.62802422    1.5080652 
   41750   0.46083876   -1.1617393   0.06813005  -0.63315448    1.4787124 
   41800   0.46936562   -1.1561508  0.058411228  -0.62876507    1.4259782 
   41850   0.46534221   -1.1632178  0.063576451  -0.63468698    1.3996501 
   41900   0.45542949   -1.1589531  0.064951017  -0.63895211     1.607783 
   41950    0.4572843   -1.1416448  0.051509251  -0.63323234    1.6279752 
   42000         0.45   -1.1610449  0.055557216   -0.6558627    1.4164526 
   42050   0.44597309   -1.1601153  0.054358704  -0.66015513    1.5410534 
   42100   0.43906613   -1.1551052  0.061313554  -0.65509143    1.4581646 
   42150   0.43456528   -1.1466462  0.060993249  -0.65144979     1.531507 
   42200   0.44499585   -1.1519744  0.055867125   -0.6514823    1.4012599 
   42250   0.44550595   -1.1651247  0.063185746  -0.65680422    1.3430119 
   42300   0.44600741   -1.1685409  0.064240793  -0.65866434    1.3292228 
   42350   0.44796006   -1.1609923  0.052721832  -0.66068366    1.3889822 
   42400   0.43933093   -1.1574039  0.062878144  -0.65556092    1.3735561 
   42450   0.43768487   -1.1519311  0.058089634  -0.65652135    1.5029872 
   42500   0.43092472    -1.145458  0.060140905  -0.65475151    1.4431041 
   42550   0.43312209   -1.1522567  0.065242765   -0.6542528    1.3241425 
   42600   0.43501708   -1.1520483   0.05991303  -0.65748071    1.4904163 
   42650   0.44077711   -1.1599284   0.06175628  -0.65776236    1.2978272 
   42700   0.44720471   -1.1628812  0.055418513   -0.6606307    1.4858237 
   42750   0.44669558   -1.1635085  0.058821783  -0.65836339     1.383713 
   42800   0.44352391   -1.1584688  0.058602232  -0.65671224    1.3424712 
   42850   0.44512349   -1.1587594   0.05253826  -0.66146863    1.4634987 
   42900   0.45243922   -1.1645056  0.057504915   -0.6549385    1.3560593 
   42950   0.44695069   -1.1639573   0.06086266  -0.65651638     1.356478 
   43000   0.44218592   -1.1634408  0.060020207  -0.66160315    1.4489653 
   43050   0.43989559   -1.1446768  0.050330296  -0.65481752    1.5631019 
   43100   0.45539467   -1.1631667  0.054189023   -0.6539625    1.5077494 
   43150   0.45956651   -1.1691458  0.053147781  -0.65681444    1.4525183 
   43200    0.4492228   -1.1688167   0.06035485  -0.65961345    1.4566487 
   43250   0.43371658   -1.1523726    0.0650331  -0.65398439    1.4739999 
   43300   0.44365287   -1.1525576  0.053050473  -0.65622393    1.5048542 
   43350   0.44358787   -1.1539693  0.049308558  -0.66144254     1.581857 
   43400   0.44331697   -1.1603668  0.057690875  -0.65972844    1.4286026 
   43450     0.437831     -1.14749  0.057355099  -0.65266877    1.5198064 
   43500   0.43824963   -1.1511427  0.058138369  -0.65511986    1.5059232 
   43550   0.43319945   -1.1494699  0.060345913  -0.65628549    1.5016336 
   43600   0.45093165   -1.1594922  0.054118325  -0.65481803    1.4890886 
   43650    0.4404822   -1.1599377   0.05867993  -0.66114263    1.5705946 
   43700   0.45006975   -1.1713249  0.061818267  -0.65981194    1.4608263 
   43750   0.44580446   -1.1648713  0.066795732  -0.65264258    1.4027636 
   43800   0.45220359   -1.1759028  0.066140198  -0.65793587    1.4027051 
   43850   0.45694603   -1.1728921  0.058142451  -0.65818442    1.3673684 
   43900    0.4513083   -1.1562843  0.052760145  -0.65259195    1.5009385 
   43950   0.45181042   -1.1606005  0.056017378   -0.6531492    1.4564551 
   44000   0.44182718   -1.1549603  0.062700501   -0.6508008    1.4753585 
   44050   0.45607577   -1.1651336  0.059472472  -0.64996545    1.4498301 
   44100   0.45524326   -1.1567374  0.048256647  -0.65361689      1.51316 
   44150   0.46327612   -1.1780147  0.059967154  -0.65515752    1.3667218 
   44200   0.46092167   -1.1689117  0.056456979  -0.65191718    1.4383015 
   44250   0.47905765   -1.1901428  0.054522888  -0.65696147    1.2310944 
   44300   0.45307816   -1.1636298  0.057347253  -0.65358193    1.3908117 
   44350   0.43560032   -1.1490292  0.058564128  -0.65522777    1.4981768 
   44400   0.44260847   -1.1557945  0.058755387  -0.65479951    1.5221925 
   44450    0.4479253   -1.1583876  0.059081124  -0.65175441    1.5324758 
   44500    0.4534764   -1.1712557  0.058107679  -0.66004957    1.4260865 
   44550   0.44360353    -1.154551  0.057631152  -0.65368594    1.5038438 
   44600    0.4488756    -1.156895  0.055240754  -0.65315275    1.4301482 
   44650   0.44906025   -1.1637947  0.060678979  -0.65442966     1.376729 
   44700   0.44155631   -1.1616165  0.066816614  -0.65361155    1.4561633 
   44750   0.44590994   -1.1629718  0.062988962   -0.6544445    1.3730321 
   44800   0.44040858   -1.1599147  0.065620729  -0.65425239     1.374938 
   44850   0.44322343   -1.1604735  0.059145002  -0.65847439    1.3897522 
   44900   0.43773896   -1.1607249  0.063750086  -0.65960069    1.4624002 
   44950   0.44249574   -1.1704741   0.06358979  -0.66475731     1.428831 
   45000   0.44083882   -1.1570945  0.056810658  -0.65981236    1.4551872 
   45050   0.44561765   -1.1738763   0.06793516  -0.66069488    1.2728897 
   45100         0.45   -1.1413898  0.056558645   -0.6352062    1.5990353 
   45150   0.44721123   -1.1427296  0.062768742  -0.63312228    1.4958626 
   45200   0.45193053   -1.1533071  0.068581422  -0.63317175    1.4770949 
   45250   0.46324833   -1.1431437  0.058346158  -0.62193523    1.5960584 
   45300   0.45978849   -1.1522839  0.061590761   -0.6312878    1.5397687 
   45350     0.455012   -1.1433262  0.060391793  -0.62830158     1.583845 
   45400    0.4660282   -1.1581011  0.059575224  -0.63288603    1.5126632 
   45450   0.47087111   -1.1539087  0.054504426   -0.6289256    1.5099928 
   45500   0.44824756   -1.1467765  0.066048016   -0.6328545    1.6035537 
   45550   0.45725368   -1.1523991  0.065967575  -0.62955887    1.5525846 
   45600   0.45571684   -1.1526828   0.06394846  -0.63339722    1.5091047 
   45650   0.46248433   -1.1404769  0.054865279  -0.62351272    1.5659816 
   45700   0.45996423    -1.149609  0.059385633  -0.63064244    1.5826413 
   45750    0.4490863   -1.1450813  0.064366469  -0.63200274    1.5467009 
   45800   0.44002866   -1.1339071  0.062104578  -0.63214058    1.6099993 
   45850   0.46317277   -1.1572996  0.062307833  -0.63220501    1.5300666 
   45900   0.46214934    -1.157313  0.067307062  -0.62824173    1.4703204 
   45950   0.46265982   -1.1536572  0.058723146  -0.63265977    1.4708521 
   46000   0.46879672    -1.158178  0.063023628  -0.62674827    1.4504725 
   46050   0.46119911   -1.1665259  0.074386287  -0.63132487    1.3587233 
   46100   0.44343229   -1.1487013  0.072497465  -0.63314103    1.5905854 
   46150   0.45507289   -1.1491052  0.064923456  -0.62948809    1.5292052 
   46200   0.45738502   -1.1492649  0.065393741   -0.6268673    1.5323827 
   46250   0.47170594   -1.1609335  0.063172435  -0.62644823    1.3860855 
   46300   0.44849404   -1.1314158  0.059830292  -0.62346523    1.5792674 
   46350   0.46170133   -1.1391448  0.050806362  -0.62702185    1.5247306 
   46400         0.45   -1.1619449  0.062976919  -0.64934296    1.3462995 
   46450   0.44523294   -1.1499899  0.057408585  -0.64771943    1.4284352 
   46500   0.44855368   -1.1685084  0.069082111  -0.65124641    1.3594851 
   46550   0.45033114   -1.1578117  0.058469399  -0.64938643    1.3985684 
   46600   0.44244111   -1.1568242  0.059620497  -0.65513125    1.4105858 
   46650   0.45036861   -1.1626046  0.057767439  -0.65484384     1.354614 
   46700   0.44513297   -1.1564498  0.063118495   -0.6485693    1.4511102 
   46750   0.44163885   -1.1540385  0.059605222  -0.65316244    1.4603475 
   46800   0.43979059   -1.1537495  0.062638542   -0.6516869    1.4544488 
   46850   0.44011111   -1.1458143  0.057210071  -0.64885984    1.4701642 
   46900   0.44585883   -1.1523386  0.056891004  -0.64996028    1.4233423 
   46950   0.45781938   -1.1708207  0.063607796  -0.64977506    1.2801739 
   47000   0.43689017   -1.1516551  0.064214654  -0.65091435    1.4669546 
   47050   0.46589625   -1.1654852  0.054568838  -0.64540836     1.348697 
   47100   0.43797542   -1.1520939  0.066436192  -0.64804729    1.5343618 
   47150   0.43753006   -1.1536238  0.061432927  -0.65502547    1.4576304 
   47200   0.45248588   -1.1626152  0.064616101  -0.64589026    1.3650554 
   47250   0.44845183   -1.1602737  0.063703302  -0.64849226    1.3862978 
   47300   0.43869526   -1.1474433  0.057904142  -0.65120943    1.6003708 
   47350    0.4425581   -1.1527387  0.060704627  -0.64984481    1.4614359 
   47400   0.44089688    -1.147866   0.05967164  -0.64766484     1.557883 
   47450   0.45521127   -1.1571387  0.053884038  -0.64842272     1.439818 
   47500    0.4445189   -1.1544352  0.061557634  -0.64872908    1.5109417 
   47550   0.44933497   -1.1615954  0.062701694  -0.64993321    1.4764022 
   47600    0.4603421   -1.1714453  0.056324932   -0.6551619    1.4219317 
   47650   0.44352068   -1.1575649  0.062387234  -0.65202659    1.5326226 
   47700    0.4369435   -1.1405153  0.059844828  -0.64409106    1.5615274 
   47750   0.44686175    -1.147018  0.051665958  -0.64886264    1.5464376 
   47800   0.44998408   -1.1548638  0.059202151  -0.64605253    1.4949946 
   47850   0.44883589   -1.1674367  0.063300496  -0.65567429    1.3810534 
   47900    0.4570877   -1.1632486  0.057418326  -0.64912351    1.3916395 
   47950   0.44515167   -1.1443289  0.055054165    -0.644494    1.5900503 
   48000   0.44956543   -1.1531778  0.059451257  -0.64453575    1.4902917 
   48050   0.45051166   -1.1536715  0.056998561  -0.64653674    1.4452705 
   48100   0.43637835   -1.1453218  0.060801749  -0.64850537    1.5133639 
   48150   0.44012529   -1.1585782  0.059806959  -0.65901277    1.4451597 
   48200   0.45110679   -1.1616479  0.059512018  -0.65140504    1.4966814 
   48250   0.45373665   -1.1596918  0.058479394  -0.64785383    1.3995688 
   48300   0.43230982   -1.1452789  0.065233439   -0.6480959     1.541926 
   48350   0.45329213   -1.1646807  0.065096118  -0.64667015    1.2857465 
   48400   0.45683066   -1.1659443  0.061611183  -0.64788318    1.3374669 
   48450   0.45856141   -1.1630283  0.058114065  -0.64673496    1.3706903 
   48500   0.44599135   -1.1488452  0.056848343  -0.64637721    1.4998981 
   48550   0.45772503   -1.1687124    0.0614043  -0.64996447    1.3538767 
   48600   0.45175498   -1.1489343   0.05514068  -0.64241508     1.447082 
   48650   0.44005753   -1.1557461  0.063915181  -0.65214013     1.421092 
   48700   0.45436064   -1.1583357  0.059388294   -0.6449654    1.4755645 
   48750   0.45217508   -1.1652277  0.063089773  -0.65033964    1.3784481 
   48800    0.4423292   -1.1519777  0.063451621  -0.64656553    1.4358784 
   48850   0.46365706   -1.1767313  0.064498638  -0.64896203    1.2433738 
   48900   0.44890932   -1.1761202  0.070471367  -0.65711359    1.3567524 
   48950   0.44995505   -1.1664958  0.068085508  -0.64883019    1.4024671 
   49000   0.45920573   -1.1707584  0.066151208  -0.64578413    1.3238437 
   49050   0.46353327   -1.1670978  0.059996304   -0.6439545      1.40854 
   49100   0.44779621   -1.1618046  0.068492048  -0.64588955    1.3915102 
   49150    0.4568638   -1.1622485  0.060391666  -0.64537376    1.3792348 
   49200   0.43678623    -1.149481  0.061984699  -0.65107405    1.3707993 
   49250   0.45151089   -1.1580186  0.061798805  -0.64508514    1.3832428 
   49300   0.44775498   -1.1624137  0.061394153  -0.65363771    1.4157761 
   49350   0.44529367   -1.1610795  0.063670338  -0.65248657    1.4418624 
   49400   0.45797315   -1.1638506  0.052453577  -0.65380549    1.3727313 
   49450   0.45889636   -1.1602736  0.053462909  -0.64829672    1.4723531 
   49500   0.45635766   -1.1656685   0.05992358  -0.64976756    1.3453557 
   49550   0.44296961   -1.1481165  0.057153778  -0.64836227    1.5654072 
   49600   0.45232248   -1.1633744   0.06197335  -0.64945553    1.4321665 
   49650   0.45234188   -1.1556963  0.059535885  -0.64419548    1.4213449 
   49700   0.44053096   -1.1497343  0.068090748  -0.64147967    1.4888289 
   49750   0.43167506    -1.140088   0.06109182  -0.64768082    1.5435212 
   49800   0.43239575   -1.1373794  0.060571621  -0.64477239    1.6126903 
   49850   0.45621121   -1.1562131  0.056925231  -0.64345681     1.468019 
   49900   0.46334719   -1.1687924  0.062149588  -0.64368172      1.34702 
[...]
   87550   0.43791984   -1.1487474  0.063445357   -0.6477471     1.500489 
   87600   0.44551831   -1.1571116  0.060461316  -0.65150319    1.4743328 
   87650   0.45330005   -1.1599618  0.054993572  -0.65204595    1.3482033 
   87700   0.45693224   -1.1645297  0.053484274  -0.65449397     1.362654 
   87750   0.46152476   -1.1714864  0.060321986  -0.65002421    1.2494107 
   87800   0.45655288    -1.172589  0.061855946  -0.65456062    1.3268815 
   87850   0.45118754   -1.1651642  0.060777273  -0.65357533      1.40189 
   87900   0.45381019   -1.1625923   0.05738735  -0.65177289    1.4472588 
   87950   0.45181415   -1.1600705  0.058748847  -0.64988405     1.455815 
   88000    0.4419346   -1.1486773  0.055897282  -0.65121368    1.5145604 
   88050   0.44024235   -1.1503945  0.060523793  -0.64999519    1.5094689 
   88100   0.45081675   -1.1672772  0.063576353  -0.65325982    1.3238808 
   88150   0.45552826   -1.1542658  0.053999544  -0.64511763    1.3987068 
   88200   0.43536916   -1.1472482  0.058715978  -0.65352585    1.4222011 
   88250    0.4498503   -1.1610899  0.061585273  -0.65002916    1.3773027 
   88300    0.4578583    -1.168765  0.062822286  -0.64846592    1.3108158 
   88350   0.46038379   -1.1701726  0.065118343  -0.64505413    1.3591957 
   88400     0.445215   -1.1514374  0.054158442  -0.65243495    1.5195447 
   88450   0.45306181   -1.1486831  0.052410388   -0.6435885    1.4954072 
   88500   0.45297994   -1.1594681  0.059623816  -0.64724182     1.400213 
   88550   0.44836143   -1.1557701  0.056016758  -0.65176559    1.4943411 
   88600    0.4374317    -1.146115  0.062701385  -0.64634643    1.5674238 
   88650   0.44874294   -1.1589241  0.062346071  -0.64820907    1.4178044 
   88700   0.44013032   -1.1364524  0.051611404  -0.64507745    1.5827418 
   88750   0.45937922   -1.1717612  0.062747279  -0.65001754    1.3745122 
   88800   0.44872082   -1.1634189  0.059098699  -0.65597332     1.488818 
   88850   0.44806342   -1.1644409  0.065697513  -0.65105337    1.4131583 
   88900   0.45487343   -1.1666191   0.05743382  -0.65469095    1.3910424 
   88950   0.44235674   -1.1547231  0.057419067  -0.65531587    1.5048488 
   89000   0.45394176   -1.1628781  0.061854191  -0.64746048    1.3929616 
   89050   0.45883024   -1.1642525  0.061343649  -0.64446098    1.3857228 
   89100   0.44723013   -1.1541934  0.058371698  -0.64896427    1.4094652 
   89150   0.42936673   -1.1465496  0.064788149  -0.65275254    1.5073278 
   89200    0.4539566   -1.1650901  0.059261003  -0.65225077    1.4922212 
   89250   0.45425364    -1.160612  0.054241672  -0.65249519     1.460631 
   89300   0.45236247    -1.153342   0.05466031  -0.64669617    1.4526387 
   89350   0.45449268   -1.1731011  0.065531599  -0.65345555    1.3824773 
   89400   0.44460061   -1.1546067  0.059609658  -0.65076694    1.4730408 
   89450    0.4532735   -1.1618135  0.058577885  -0.65033987    1.4516776 
   89500    0.4511634   -1.1605263  0.064851535  -0.64488735    1.3930859 
   89550   0.43161635   -1.1600121  0.080696569  -0.64805888    1.3144567 
   89600   0.44616895   -1.1693563  0.073343475   -0.6502157    1.2966339 
   89650    0.4540465   -1.1647477  0.061815384  -0.64926415    1.3701374 
   89700   0.44287623   -1.1565372  0.057417955  -0.65661212    1.4995266 
   89750     0.453104   -1.1679021  0.063725952  -0.65144979    1.3249139 
   89800   0.45963866   -1.1713016  0.057144747   -0.6549012    1.4227088 
   89850   0.45582319   -1.1688355  0.061291673  -0.65210049    1.3611793 
   89900         0.45   -1.1864134  0.063238365  -0.67355002     1.195621 
   89950   0.44589093   -1.1762884  0.056287144  -0.67448187     1.315476 
   90000   0.44224504     -1.17372  0.058859204  -0.67298433    1.3101518 
   90050   0.43521939   -1.1711299  0.062991375  -0.67328177    1.2815023 
   90100   0.43060636     -1.15681  0.056603099  -0.66995941    1.3414905 
   90150    0.4363138   -1.1600002  0.050876172  -0.67317379    1.2767849 
   90200   0.43775628   -1.1691708  0.059365404   -0.6724139    1.2092944 
   90250   0.44124989   -1.1679004  0.049575594  -0.67744264    1.2628377 
   90300   0.44261758   -1.1718301   0.05724816  -0.67233319    1.2389153 
   90350   0.44093998   -1.1643257  0.054690773  -0.66906236    1.2864261 
   90400   0.43676462   -1.1663864  0.058344001  -0.67164175    1.3216514 
   90450   0.45600517   -1.1843787  0.055881314  -0.67287218      1.24952 
   90500   0.43121043   -1.1663253  0.061463722  -0.67401045    1.3119279 
   90550   0.43473014    -1.165368  0.055912225  -0.67508788    1.3369109 
   90600         0.45   -1.1628244  0.062223317   -0.6509761    1.3426077 
   90650   0.43957434   -1.1609708   0.06507553  -0.65668728    1.4210247 
   90700   0.45201471   -1.1720878  0.069702856  -0.65074691    1.4202892 
   90750   0.44681469   -1.1648125  0.062776486  -0.65559371    1.4546366 
   90800   0.43381613   -1.1461676  0.057319547  -0.65539345    1.4884479 
   90850   0.44812863   -1.1656087  0.064172731  -0.65368074    1.3780289 
   90900   0.43909518   -1.1550705  0.062652102  -0.65368914    1.3913851 
   90950   0.45696234   -1.1650822  0.055841827  -0.65265882    1.3851964 
   91000   0.45079992   -1.1605041  0.056406371  -0.65367343    1.4443824 
   91050   0.44768029   -1.1633423  0.060163956  -0.65587108    1.4150228 
   91100    0.4410983   -1.1489848  0.056608273  -0.65164579    1.4681459 
   91150   0.43891954   -1.1560544  0.058995358  -0.65850524    1.4035957 
   91200   0.44828087   -1.1594026  0.057346385  -0.65414894    1.4189334 
   91250   0.45024733   -1.1527983  0.053020299  -0.64990585    1.4636614 
   91300   0.43390656   -1.1460725  0.059817322   -0.6527102    1.5308103 
   91350   0.45029059   -1.1619562  0.056903551  -0.65513734    1.4297971 
   91400   0.44436165    -1.168087  0.068812361  -0.65528329    1.3548017 
   91450   0.44693435   -1.1566318  0.060005595  -0.65006434    1.3830856 
   91500   0.44884103   -1.1600389  0.053296962  -0.65827492    1.4190961 
   91550   0.43994082   -1.1577568  0.060587851  -0.65759471    1.4435785 
   91600   0.43884333   -1.1475559  0.054669732  -0.65440857    1.4858084 
   91650   0.44677975   -1.1679803   0.06793412  -0.65363871    1.3523583 
   91700   0.44970189    -1.156227  0.057262884  -0.64963694    1.4276022 
   91750   0.45572241   -1.1581253  0.051248522  -0.65153411    1.3888939 
   91800   0.43665324   -1.1516024  0.066748715  -0.64856429    1.3791027 
   91850   0.45574323   -1.1637644  0.059228389  -0.64917259    1.3824525 
   91900   0.46449832   -1.1681881  0.053507681  -0.65056919    1.4077347 
   91950   0.45350558   -1.1616316  0.059885222  -0.64861867    1.4052682 
   92000   0.45676906    -1.163406  0.059060756  -0.64795681    1.4256096 
   92050   0.43790503   -1.1444225  0.057531444  -0.64935098    1.5274049 
   92100   0.43834585   -1.1496108  0.063282341   -0.6483479    1.4028252 
   92150   0.46020399   -1.1638324  0.056455022  -0.64755685    1.3696116 
   92200   0.44692248   -1.1589526  0.060376665  -0.65202588    1.4761204 
   92250   0.44852036   -1.1652161   0.07039173  -0.64667777    1.3576791 
   92300   0.45297464   -1.1580082  0.052981352   -0.6524297    1.3373511 
   92350   0.43926518   -1.1521256  0.065396138  -0.64783031    1.5446273 
   92400   0.45641921   -1.1676748   0.06193815  -0.64969776    1.3261533 
   92450   0.45549665   -1.1575555  0.057847736  -0.64459073    1.3366146 
   92500   0.44837463   -1.1568339  0.059281968  -0.64955097    1.3954243 
   92550   0.46109971   -1.1759693  0.064550217  -0.65070366    1.2764497 
   92600   0.45883747   -1.1776612  0.065179646  -0.65402642     1.312363 
   92650   0.45857588   -1.1757981  0.064238762  -0.65336559    1.2766304 
   92700   0.44918716   -1.1563197  0.061242328  -0.64626453    1.4487003 
   92750   0.46752024   -1.1648055  0.051470698  -0.64620413    1.3409105 
   92800   0.44940298   -1.1558453  0.059426651  -0.64739014    1.3243003 
   92850   0.45547922   -1.1672077  0.066136653  -0.64597143      1.30008 
   92900   0.45283198   -1.1610126  0.057547876  -0.65101014    1.3814896 
   92950    0.4501821   -1.1595162  0.064444552  -0.64526473    1.4338127 
   93000   0.44966924   -1.1596266  0.063192573  -0.64713954     1.448887 
   93050   0.46533004   -1.1742344  0.065380248  -0.64391192    1.3258271 
   93100   0.44649509   -1.1586259  0.062894241  -0.64960864    1.4726336 
   93150   0.45703799   -1.1676494  0.060815861   -0.6501764    1.2346785 
   93200   0.45549398   -1.1659012  0.063483432  -0.64730338    1.3941789 
   93250   0.45523472   -1.1751254  0.065302772  -0.65496726      1.36971 
   93300   0.45395906   -1.1672118  0.063624755  -0.65000631    1.3259953 
   93350   0.45034941   -1.1641064   0.06945595  -0.64467635    1.3650839 
   93400   0.44514116   -1.1566801  0.065159162  -0.64675072    1.4865028 
   93450   0.45715003   -1.1672457  0.057332184  -0.65314444    1.3780875 
   93500   0.45229478   -1.1557316  0.057570892   -0.6462428    1.4553932 
   93550   0.45731124   -1.1677525  0.063488236  -0.64733411    1.3743913 
   93600   0.46927741   -1.1821514  0.060556306  -0.65270874    1.3158879 
   93650   0.46651972   -1.1774772  0.064249466  -0.64709682    1.3730968 
   93700    0.4554143   -1.1660267  0.068897559  -0.64209431      1.38214 
   93750   0.46919077   -1.1718007  0.059206635   -0.6437943    1.3117888 
   93800   0.45993119   -1.1648604  0.058563491  -0.64674899    1.4751636 
   93850   0.46916838   -1.1770534  0.060052595  -0.64822339    1.2704425 
   93900   0.45395401   -1.1578463  0.057947693  -0.64632287    1.4300964 
   93950   0.44947972   -1.1588592  0.064876886  -0.64487711    1.4782114 
   94000   0.45100925   -1.1520348  0.061585905  -0.63981553    1.4190692 
   94050   0.43430824   -1.1349264   0.05519625  -0.64578385    1.5344051 
   94100   0.44912316   -1.1544622  0.060916989   -0.6447963    1.3988773 
   94150   0.45526134   -1.1611096  0.062931909  -0.64329574    1.4485441 
   94200   0.45980873    -1.171333  0.064917207  -0.64699029    1.4645545 
   94250   0.45839338   -1.1720383  0.066562883  -0.64746408    1.3096662 
   94300   0.45807772   -1.1625073  0.056629772  -0.64818156    1.3789488 
   94350   0.45550814   -1.1599259  0.057329058  -0.64746826       1.4973 
   94400   0.45146952    -1.156579  0.054689275  -0.65079641    1.4155214 
   94450   0.44286006   -1.1468281  0.057347199  -0.64698994    1.4132978 
   94500   0.44590025   -1.1527549  0.054524482  -0.65270174    1.4690506 
   94550    0.4397386   -1.1514232  0.061803038    -0.650248    1.4733308 
   94600   0.44143946   -1.1562535  0.062926687  -0.65225522    1.4069032 
   94650   0.45246892   -1.1640101  0.064522916  -0.64739535    1.3654625 
   94700   0.45218401   -1.1576649  0.060032486  -0.64582521    1.4170495 
   94750   0.44636617   -1.1583546  0.066298953  -0.64606149    1.3529264 
   94800   0.45196513   -1.1531798  0.056485316  -0.64510595    1.4215623 
   94850   0.44341608   -1.1552781  0.062832643  -0.64939889    1.5371595 
   94900   0.45288174   -1.1651355  0.066189164  -0.64644202    1.2807697 
   94950   0.44377699   -1.1600445  0.066730877  -0.64990646    1.4457181 
   95000   0.43596489   -1.1464418  0.062137912  -0.64870234    1.5715631 
   95050   0.46194932   -1.1692562  0.060654325  -0.64703751    1.3327218 
   95100   0.43850581   -1.1561197  0.065931699  -0.65204762    1.5152145 
   95150   0.45933768   -1.1614138  0.056750191  -0.64570871     1.382051 
   95200   0.44710306    -1.158292  0.061384633  -0.65017692    1.4214351 
   95250   0.44116422    -1.149729  0.068281984  -0.64065045    1.4273309 
   95300   0.43871867     -1.14914  0.062848023  -0.64793894    1.5072939 
   95350   0.45769145   -1.1639066  0.057160771  -0.64943576    1.3955926 
   95400   0.46500873   -1.1648953  0.053663438  -0.64661061    1.3589637 
   95450   0.46818895   -1.1788546  0.057420893  -0.65363492    1.2486457 
   95500   0.45958565   -1.1660065  0.055243733  -0.65156012    1.3828858 
   95550   0.44863284   -1.1580691  0.058401192   -0.6514089    1.4213266 
   95600   0.45496384   -1.1623816  0.057661215  -0.65013569    1.4956863 
   95650   0.45938788   -1.1757356   0.06774881  -0.64898175    1.3173434 
   95700   0.45854017   -1.1696903  0.055888894  -0.65564336    1.4027141 
   95750   0.46606239   -1.1701068  0.054374912  -0.65005784    1.3496192 
   95800   0.44736084   -1.1555389  0.058828136  -0.64972272    1.4397448 
   95850   0.45542773   -1.1630922  0.054809631  -0.65323437    1.3745171 
   95900    0.4472442   -1.1590996   0.06314395  -0.64908418     1.435347 
   95950   0.46131756   -1.1640836  0.050872972  -0.65227751    1.3872603 
   96000   0.44610211   -1.1559473  0.054103992  -0.65611294    1.5596905 
   96050    0.4552482   -1.1632775  0.053061833  -0.65534687     1.453424 
   96100   0.45617792   -1.1698064  0.060765777  -0.65324287    1.3492326 
   96150   0.46865237   -1.1721957  0.051623467  -0.65231046    1.3271197 
   96200   0.45349643   -1.1647203  0.058148593  -0.65345318    1.3561487 
   96250   0.44497552   -1.1636801  0.065939762  -0.65313561    1.4347942 
   96300   0.46059872   -1.1704342  0.056493643   -0.6537257    1.3442488 
   96350   0.46314903   -1.1747444  0.057777502  -0.65420383    1.3499547 
   96400   0.43794303   -1.1490089  0.060725736  -0.65070505    1.5522565 
   96450   0.46779518   -1.1696936  0.057969986  -0.64431827      1.37078 
   96500   0.46640312   -1.1747559  0.058970666  -0.64977082    1.3222883 
   96550   0.45742313   -1.1681605  0.055848677  -0.65526991    1.3839562 
   96600   0.44926317   -1.1633475  0.063554982  -0.65090373    1.4072784 
   96650   0.45359627   -1.1567081  0.060819273   -0.6426706    1.3926127 
   96700   0.44097015   -1.1445943  0.060745997   -0.6432456    1.4257579 
   96750   0.44757124   -1.1481843  0.057228277  -0.64375778    1.4792431 
   96800   0.44288009   -1.1510945  0.062887085  -0.64569641    1.4738678 
   96850   0.47111322   -1.1740746  0.058209683  -0.64514434    1.2744199 
   96900   0.45568777   -1.1644347  0.058149555  -0.65097716    1.4157974 
   96950   0.45830056   -1.1725687  0.061513345  -0.65313668    1.3383251 
   97000   0.45487532   -1.1586135  0.059460447  -0.64465677    1.4670378 
   97050    0.4539097   -1.1569883  0.053535024   -0.6499218    1.5146743 
   97100   0.44700789   -1.1555869  0.059292724  -0.64965877    1.5418222 
   97150   0.44905142   -1.1673531  0.065916606  -0.65275931    1.3849076 
   97200   0.44172805   -1.1474035  0.057546808  -0.64849679    1.4218008 
   97250   0.44524766   -1.1533622  0.059265698  -0.64921986    1.4508128 
   97300   0.44143519   -1.1401583  0.054223785  -0.64486714    1.5316593 
   97350   0.44989185   -1.1628303  0.064946719  -0.64836661     1.292028 
   97400   0.44695423   -1.1577404  0.063135702  -0.64802297    1.3456218 
   97450   0.44586803   -1.1521664  0.061143393  -0.64552657    1.3888217 
   97500   0.45294539   -1.1590479  0.060686705   -0.6457933    1.3306419 
   97550   0.44971925   -1.1656904  0.068132094  -0.64821385    1.2551979 
   97600   0.45501654   -1.1708635   0.06759365  -0.64863245    1.2928584 
   97650   0.46333145   -1.1777443  0.062715491  -0.65208344    1.3179643 
   97700   0.46500446    -1.180171  0.065657404  -0.64989662    1.3390546 
   97750   0.46260294   -1.1715199  0.062788762  -0.64651369    1.3368622 
   97800   0.44471879   -1.1503646  0.063103366  -0.64291308    1.5426154 
   97850   0.45972079   -1.1637692  0.061348082  -0.64308338    1.2892079 
   97900   0.45261541   -1.1607992  0.063346568  -0.64521442    1.3465623 
   97950   0.45856741   -1.1641559  0.060030039  -0.64594061    1.4352152 
   98000   0.45756828   -1.1655769  0.061728374  -0.64666154    1.3748208 
   98050   0.45470621   -1.1620852  0.059540447  -0.64821747    1.3224706 
   98100   0.44928406   -1.1543805  0.057038112  -0.64843276    1.5092568 
   98150   0.44155871   -1.1567078  0.064571012  -0.65094605     1.465938 
   98200    0.4572737   -1.1669033  0.059249335  -0.65076137    1.3581995 
   98250   0.44862332   -1.1598481  0.061144963  -0.65045366    1.4436523 
   98300   0.45473414   -1.1556248  0.056164039  -0.64510554    1.4293277 
   98350   0.43800391   -1.1385146  0.050516814  -0.65035892    1.6007702 
   98400   0.45776474   -1.1617014  0.053620217  -0.65069791    1.3879016 
   98450    0.4471042   -1.1577201  0.056081077  -0.65490741    1.4609026 
   98500   0.44766858   -1.1558118  0.060256274  -0.64826004    1.4953495 
   98550   0.43523987   -1.1452651  0.058875848  -0.65151207    1.5887228 
   98600   0.45606487   -1.1556163  0.053510074  -0.64642138    1.4586977 
   98650   0.45540611   -1.1617656  0.053908854  -0.65283018    1.4677237 
   98700   0.46696634   -1.1762458   0.06133298  -0.64833561    1.3793231 
   98750   0.45184079   -1.1567891  0.053999998  -0.65132486    1.5352045 
   98800   0.45746802   -1.1714677   0.05970188    -0.654679    1.4016091 
   98850   0.46336006   -1.1816255   0.06040204  -0.65824956    1.3528007 
   98900   0.45458784   -1.1638595  0.056736403  -0.65291408    1.3641221 
   98950   0.45114333   -1.1498332  0.054970085  -0.64409572    1.4023504 
   99000   0.46249185   -1.1666227  0.052366735  -0.65214957    1.3436031 
   99050   0.44329334   -1.1622599  0.070102419  -0.64923359    1.4485763 
   99100   0.45467902   -1.1665639  0.057322506   -0.6549413    1.3074813 
   99150   0.45414233   -1.1602149  0.058606305  -0.64784472    1.3960689 
   99200   0.45831833   -1.1692897  0.060529726  -0.65082354    1.3689337 
   99250   0.44862736   -1.1543352  0.059552386  -0.64652934    1.4341184 
   99300   0.45326945   -1.1559632  0.060941426  -0.64213001    1.4559877 
   99350   0.45461071   -1.1532496  0.055682573  -0.64333516    1.4437777 
   99400   0.45258201   -1.1565405  0.060402911  -0.64393272    1.4649548 
   99450   0.45107621   -1.1623447  0.063677304  -0.64796711     1.391028 
   99500    0.4560585   -1.1594669  0.057844749  -0.64594369     1.392456 
   99550   0.45954894   -1.1654834  0.060086131   -0.6462313    1.3977925 
   99600   0.45542823   -1.1692702  0.068932841  -0.64528869    1.4000232 
   99650   0.45310267   -1.1568585  0.059747394  -0.64438603    1.5134707 
   99700   0.44526372   -1.1553076  0.064046604  -0.64636833    1.4688124 
   99750   0.46527024   -1.1771332  0.064450293  -0.64780036    1.3265471 
   99800   0.44827895   -1.1626495   0.07051322  -0.64423086     1.312719 
   99850   0.46145349   -1.1570233  0.057791057  -0.63816327     1.409492 
   99900   0.46045802   -1.1554118  0.053143829  -0.64219363    1.4598525 
   99950   0.45315856   -1.1549971  0.056357659  -0.64585852     1.427403 
  100000   0.45478847   -1.1585811   0.05928577  -0.64488589    1.4227943 
Loop time of 6.54999 on 4 procs for 100000 steps with 1200 atoms

Performance: 6595427.334 tau/day, 15267.193 timesteps/s
99.6% CPU use with 4 MPI tasks x no OpenMP threads

MPI task timing breakdown:
Section |  min time  |  avg time  |  max time  |%varavg| %total
---------------------------------------------------------------
Pair    | 3.627      | 3.6782     | 3.7296     |   2.2 | 56.16
Bond    | 0.15106    | 0.18006    | 0.1974     |   4.4 |  2.75
Neigh   | 0.9969     | 0.99751    | 0.99808    |   0.0 | 15.23
Comm    | 0.84285    | 0.89421    | 0.97353    |   5.5 | 13.65
Output  | 0.16985    | 0.17184    | 0.17764    |   0.8 |  2.62
Modify  | 0.41279    | 0.42066    | 0.42817    |   0.8 |  6.42
Other   |            | 0.2076     |            |       |  3.17

Nlocal:        300.000 ave         311 max         292 min
Histogram: 1 0 1 0 1 0 0 0 0 1
Nghost:        210.750 ave         218 max         202 min
Histogram: 1 0 0 0 1 0 0 1 0 1
Neighs:        2546.75 ave        2588 max        2505 min
Histogram: 1 0 0 0 1 0 1 0 0 1

Total # of neighbors = 10187
Ave neighs/atom = 8.4891667
Ave special neighs/atom = 0.50000000
Neighbor list builds = 8199
Dangerous builds = 0
Total wall time: 0:00:06
