ITEM: TIMESTEP
0
ITEM: NUMBER OF ATOMS
420
ITEM: BOX BOUNDS pp ss pp
0.0000000000000000e+00 2.2653923264628304e+01
-1.9618873042551413e-03 1.9620834929855668e+01
-2.8317404080785380e-01 2.8317404080785380e-01
ITEM: ATOMS id type xs ys zs
1 2 0 9.998e-05 0.5
2 2 0.025 0.05009 0.5
3 2 0.05 9.998e-05 0.5
4 2 0.075 0.05009 0.5
5 2 0.1 9.998e-05 0.5
6 2 0.125 0.05009 0.5
7 2 0.15 9.998e-05 0.5
8 2 0.175 0.05009 0.5
9 2 0.2 9.998e-05 0.5
10 2 0.225 0.05009 0.5
11 2 0.25 9.998e-05 0.5
12 2 0.275 0.05009 0.5
13 2 0.3 9.998e-05 0.5
14 2 0.325 0.05009 0.5
15 2 0.35 9.998e-05 0.5
16 2 0.375 0.05009 0.5
17 2 0.4 9.998e-05 0.5
18 2 0.425 0.05009 0.5
19 2 0.45 9.998e-05 0.5
20 2 0.475 0.05009 0.5
21 2 0 0.10008 0.5
23 2 0.05 0.10008 0.5
25 2 0.1 0.10008 0.5
27 2 0.15 0.10008 0.5
29 2 0.2 0.10008 0.5
31 2 0.25 0.10008 0.5
33 2 0.3 0.10008 0.5
35 2 0.35 0.10008 0.5
37 2 0.4 0.10008 0.5
39 2 0.45 0.10008 0.5
22 1 0.025 0.15007 0.5
41 1 0 0.20006 0.5
43 1 0.05 0.20006 0.5
24 1 0.075 0.15007 0.5
45 1 0.1 0.20006 0.5
26 1 0.125 0.15007 0.5
28 1 0.175 0.15007 0.5
47 1 0.15 0.20006 0.5
30 1 0.225 0.15007 0.5
49 1 0.2 0.20006 0.5
32 1 0.275 0.15007 0.5
51 1 0.25 0.20006 0.5
53 1 0.3 0.20006 0.5
34 1 0.325 0.15007 0.5
55 1 0.35 0.20006 0.5
36 1 0.375 0.15007 0.5
38 1 0.425 0.15007 0.5
57 1 0.4 0.20006 0.5
40 1 0.475 0.15007 0.5
59 1 0.45 0.20006 0.5
42 1 0.025 0.25005 0.5
44 1 0.075 0.25005 0.5
46 1 0.125 0.25005 0.5
48 1 0.175 0.25005 0.5
50 1 0.225 0.25005 0.5
52 1 0.275 0.25005 0.5
54 1 0.325 0.25005 0.5
56 1 0.375 0.25005 0.5
58 1 0.425 0.25005 0.5
60 1 0.475 0.25005 0.5
61 1 0 0.30004 0.5
62 1 0.025 0.35003 0.5
63 1 0.05 0.30004 0.5
64 1 0.075 0.35003 0.5
65 1 0.1 0.30004 0.5
66 1 0.125 0.35003 0.5
67 1 0.15 0.30004 0.5
68 1 0.175 0.35003 0.5
69 1 0.2 0.30004 0.5
70 1 0.225 0.35003 0.5
71 1 0.25 0.30004 0.5
72 1 0.275 0.35003 0.5
73 1 0.3 0.30004 0.5
74 1 0.325 0.35003 0.5
75 1 0.35 0.30004 0.5
76 1 0.375 0.35003 0.5
77 1 0.4 0.30004 0.5
78 1 0.425 0.35003 0.5
79 1 0.45 0.30004 0.5
80 1 0.475 0.35003 0.5
81 1 0 0.40002 0.5
83 1 0.05 0.40002 0.5
85 1 0.1 0.40002 0.5
87 1 0.15 0.40002 0.5
89 1 0.2 0.40002 0.5
91 1 0.25 0.40002 0.5
93 1 0.3 0.40002 0.5
95 1 0.35 0.40002 0.5
97 1 0.4 0.40002 0.5
99 1 0.45 0.40002 0.5
82 1 0.025 0.45001 0.5
84 1 0.075 0.45001 0.5
86 1 0.125 0.45001 0.5
88 1 0.175 0.45001 0.5
90 1 0.225 0.45001 0.5
92 1 0.275 0.45001 0.5
94 1 0.325 0.45001 0.5
96 1 0.375 0.45001 0.5
98 1 0.425 0.45001 0.5
100 1 0.475 0.45001 0.5
101 1 0 0.5 0.5
102 1 0.025 0.54999 0.5
103 1 0.05 0.5 0.5
104 1 0.075 0.54999 0.5
105 1 0.1 0.5 0.5
106 1 0.125 0.54999 0.5
107 1 0.15 0.5 0.5
108 1 0.175 0.54999 0.5
109 1 0.2 0.5 0.5
110 1 0.225 0.54999 0.5
111 1 0.25 0.5 0.5
112 1 0.275 0.54999 0.5
113 1 0.3 0.5 0.5
114 1 0.325 0.54999 0.5
115 1 0.35 0.5 0.5
116 1 0.375 0.54999 0.5
117 1 0.4 0.5 0.5
118 1 0.425 0.54999 0.5
119 1 0.45 0.5 0.5
120 1 0.475 0.54999 0.5
121 1 0 0.59998 0.5
123 1 0.05 0.59998 0.5
125 1 0.1 0.59998 0.5
127 1 0.15 0.59998 0.5
129 1 0.2 0.59998 0.5
131 1 0.25 0.59998 0.5
133 1 0.3 0.59998 0.5
135 1 0.35 0.59998 0.5
137 1 0.4 0.59998 0.5
139 1 0.45 0.59998 0.5
122 1 0.025 0.64997 0.5
141 1 0 0.69996 0.5
143 1 0.05 0.69996 0.5
124 1 0.075 0.64997 0.5
145 1 0.1 0.69996 0.5
126 1 0.125 0.64997 0.5
128 1 0.175 0.64997 0.5
147 1 0.15 0.69996 0.5
130 1 0.225 0.64997 0.5
149 1 0.2 0.69996 0.5
132 1 0.275 0.64997 0.5
151 1 0.25 0.69996 0.5
153 1 0.3 0.69996 0.5
134 1 0.325 0.64997 0.5
155 1 0.35 0.69996 0.5
136 1 0.375 0.64997 0.5
138 1 0.425 0.64997 0.5
157 1 0.4 0.69996 0.5
140 1 0.475 0.64997 0.5
159 1 0.45 0.69996 0.5
142 1 0.025 0.74995 0.5
144 1 0.075 0.74995 0.5
146 1 0.125 0.74995 0.5
148 1 0.175 0.74995 0.5
150 1 0.225 0.74995 0.5
152 1 0.275 0.74995 0.5
154 1 0.325 0.74995 0.5
156 1 0.375 0.74995 0.5
158 1 0.425 0.74995 0.5
160 1 0.475 0.74995 0.5
161 1 0 0.79994 0.5
162 1 0.025 0.84993 0.5
163 1 0.05 0.79994 0.5
164 1 0.075 0.84993 0.5
165 1 0.1 0.79994 0.5
166 1 0.125 0.84993 0.5
167 1 0.15 0.79994 0.5
168 1 0.175 0.84993 0.5
169 1 0.2 0.79994 0.5
170 1 0.225 0.84993 0.5
171 1 0.25 0.79994 0.5
172 1 0.275 0.84993 0.5
173 1 0.3 0.79994 0.5
174 1 0.325 0.84993 0.5
175 1 0.35 0.79994 0.5
176 1 0.375 0.84993 0.5
177 1 0.4 0.79994 0.5
178 1 0.425 0.84993 0.5
179 1 0.45 0.79994 0.5
180 1 0.475 0.84993 0.5
181 1 0 0.89992 0.5
183 1 0.05 0.89992 0.5
185 1 0.1 0.89992 0.5
187 1 0.15 0.89992 0.5
189 1 0.2 0.89992 0.5
191 1 0.25 0.89992 0.5
193 1 0.3 0.89992 0.5
195 1 0.35 0.89992 0.5
197 1 0.4 0.89992 0.5
199 1 0.45 0.89992 0.5
182 1 0.025 0.94991 0.5
201 1 0 0.9999 0.5
202 1 0.05 0.9999 0.5
184 1 0.075 0.94991 0.5
203 1 0.1 0.9999 0.5
186 1 0.125 0.94991 0.5
188 1 0.175 0.94991 0.5
204 1 0.15 0.9999 0.5
190 1 0.225 0.94991 0.5
205 1 0.2 0.9999 0.5
192 1 0.275 0.94991 0.5
206 1 0.25 0.9999 0.5
207 1 0.3 0.9999 0.5
194 1 0.325 0.94991 0.5
208 1 0.35 0.9999 0.5
196 1 0.375 0.94991 0.5
198 1 0.425 0.94991 0.5
209 1 0.4 0.9999 0.5
200 1 0.475 0.94991 0.5
210 1 0.45 0.9999 0.5
211 2 0.5 9.998e-05 0.5
212 2 0.525 0.05009 0.5
213 2 0.55 9.998e-05 0.5
214 2 0.575 0.05009 0.5
215 2 0.6 9.998e-05 0.5
216 2 0.625 0.05009 0.5
217 2 0.65 9.998e-05 0.5
218 2 0.675 0.05009 0.5
219 2 0.7 9.998e-05 0.5
220 2 0.725 0.05009 0.5
221 2 0.75 9.998e-05 0.5
222 2 0.775 0.05009 0.5
223 2 0.8 9.998e-05 0.5
224 2 0.825 0.05009 0.5
225 2 0.85 9.998e-05 0.5
226 2 0.875 0.05009 0.5
227 2 0.9 9.998e-05 0.5
228 2 0.925 0.05009 0.5
229 2 0.95 9.998e-05 0.5
230 2 0.975 0.05009 0.5
231 2 0.5 0.10008 0.5
233 2 0.55 0.10008 0.5
235 2 0.6 0.10008 0.5
237 2 0.65 0.10008 0.5
239 2 0.7 0.10008 0.5
241 2 0.75 0.10008 0.5
243 2 0.8 0.10008 0.5
245 2 0.85 0.10008 0.5
247 2 0.9 0.10008 0.5
249 2 0.95 0.10008 0.5
232 1 0.525 0.15007 0.5
251 1 0.5 0.20006 0.5
253 1 0.55 0.20006 0.5
234 1 0.575 0.15007 0.5
255 1 0.6 0.20006 0.5
236 1 0.625 0.15007 0.5
238 1 0.675 0.15007 0.5
257 1 0.65 0.20006 0.5
240 1 0.725 0.15007 0.5
259 1 0.7 0.20006 0.5
242 1 0.775 0.15007 0.5
261 1 0.75 0.20006 0.5
263 1 0.8 0.20006 0.5
244 1 0.825 0.15007 0.5
265 1 0.85 0.20006 0.5
246 1 0.875 0.15007 0.5
248 1 0.925 0.15007 0.5
267 1 0.9 0.20006 0.5
250 1 0.975 0.15007 0.5
269 1 0.95 0.20006 0.5
252 1 0.525 0.25005 0.5
254 1 0.575 0.25005 0.5
256 1 0.625 0.25005 0.5
258 1 0.675 0.25005 0.5
260 1 0.725 0.25005 0.5
262 1 0.775 0.25005 0.5
264 1 0.825 0.25005 0.5
266 1 0.875 0.25005 0.5
268 1 0.925 0.25005 0.5
270 1 0.975 0.25005 0.5
271 1 0.5 0.30004 0.5
272 1 0.525 0.35003 0.5
273 1 0.55 0.30004 0.5
274 1 0.575 0.35003 0.5
275 1 0.6 0.30004 0.5
276 1 0.625 0.35003 0.5
277 1 0.65 0.30004 0.5
278 1 0.675 0.35003 0.5
279 1 0.7 0.30004 0.5
280 1 0.725 0.35003 0.5
281 1 0.75 0.30004 0.5
282 1 0.775 0.35003 0.5
283 1 0.8 0.30004 0.5
284 1 0.825 0.35003 0.5
285 1 0.85 0.30004 0.5
286 1 0.875 0.35003 0.5
287 1 0.9 0.30004 0.5
288 1 0.925 0.35003 0.5
289 1 0.95 0.30004 0.5
290 1 0.975 0.35003 0.5
291 1 0.5 0.40002 0.5
293 1 0.55 0.40002 0.5
295 1 0.6 0.40002 0.5
297 1 0.65 0.40002 0.5
299 1 0.7 0.40002 0.5
301 1 0.75 0.40002 0.5
303 1 0.8 0.40002 0.5
305 1 0.85 0.40002 0.5
307 1 0.9 0.40002 0.5
309 1 0.95 0.40002 0.5
292 1 0.525 0.45001 0.5
294 1 0.575 0.45001 0.5
296 1 0.625 0.45001 0.5
298 1 0.675 0.45001 0.5
300 1 0.725 0.45001 0.5
302 1 0.775 0.45001 0.5
304 1 0.825 0.45001 0.5
306 1 0.875 0.45001 0.5
308 1 0.925 0.45001 0.5
310 1 0.975 0.45001 0.5
311 1 0.5 0.5 0.5
312 1 0.525 0.54999 0.5
313 1 0.55 0.5 0.5
314 1 0.575 0.54999 0.5
315 1 0.6 0.5 0.5
316 1 0.625 0.54999 0.5
317 1 0.65 0.5 0.5
318 1 0.675 0.54999 0.5
319 1 0.7 0.5 0.5
320 1 0.725 0.54999 0.5
321 1 0.75 0.5 0.5
322 1 0.775 0.54999 0.5
323 1 0.8 0.5 0.5
324 1 0.825 0.54999 0.5
325 1 0.85 0.5 0.5
326 1 0.875 0.54999 0.5
327 1 0.9 0.5 0.5
328 1 0.925 0.54999 0.5
329 1 0.95 0.5 0.5
330 1 0.975 0.54999 0.5
331 1 0.5 0.59998 0.5
333 1 0.55 0.59998 0.5
335 1 0.6 0.59998 0.5
337 1 0.65 0.59998 0.5
339 1 0.7 0.59998 0.5
341 1 0.75 0.59998 0.5
343 1 0.8 0.59998 0.5
345 1 0.85 0.59998 0.5
347 1 0.9 0.59998 0.5
349 1 0.95 0.59998 0.5
332 1 0.525 0.64997 0.5
351 1 0.5 0.69996 0.5
353 1 0.55 0.69996 0.5
334 1 0.575 0.64997 0.5
355 1 0.6 0.69996 0.5
336 1 0.625 0.64997 0.5
338 1 0.675 0.64997 0.5
357 1 0.65 0.69996 0.5
340 1 0.725 0.64997 0.5
359 1 0.7 0.69996 0.5
342 1 0.775 0.64997 0.5
361 1 0.75 0.69996 0.5
363 1 0.8 0.69996 0.5
344 1 0.825 0.64997 0.5
365 1 0.85 0.69996 0.5
346 1 0.875 0.64997 0.5
348 1 0.925 0.64997 0.5
367 1 0.9 0.69996 0.5
350 1 0.975 0.64997 0.5
369 1 0.95 0.69996 0.5
352 1 0.525 0.74995 0.5
354 1 0.575 0.74995 0.5
356 1 0.625 0.74995 0.5
358 1 0.675 0.74995 0.5
360 1 0.725 0.74995 0.5
362 1 0.775 0.74995 0.5
364 1 0.825 0.74995 0.5
366 1 0.875 0.74995 0.5
368 1 0.925 0.74995 0.5
370 1 0.975 0.74995 0.5
371 1 0.5 0.79994 0.5
372 1 0.525 0.84993 0.5
373 1 0.55 0.79994 0.5
374 1 0.575 0.84993 0.5
375 1 0.6 0.79994 0.5
376 1 0.625 0.84993 0.5
377 1 0.65 0.79994 0.5
378 1 0.675 0.84993 0.5
379 1 0.7 0.79994 0.5
380 1 0.725 0.84993 0.5
381 1 0.75 0.79994 0.5
382 1 0.775 0.84993 0.5
383 1 0.8 0.79994 0.5
384 1 0.825 0.84993 0.5
385 1 0.85 0.79994 0.5
386 1 0.875 0.84993 0.5
387 1 0.9 0.79994 0.5
388 1 0.925 0.84993 0.5
389 1 0.95 0.79994 0.5
390 1 0.975 0.84993 0.5
391 1 0.5 0.89992 0.5
393 1 0.55 0.89992 0.5
395 1 0.6 0.89992 0.5
397 1 0.65 0.89992 0.5
399 1 0.7 0.89992 0.5
401 1 0.75 0.89992 0.5
403 1 0.8 0.89992 0.5
405 1 0.85 0.89992 0.5
407 1 0.9 0.89992 0.5
409 1 0.95 0.89992 0.5
392 1 0.525 0.94991 0.5
411 1 0.5 0.9999 0.5
412 1 0.55 0.9999 0.5
394 1 0.575 0.94991 0.5
413 1 0.6 0.9999 0.5
396 1 0.625 0.94991 0.5
398 1 0.675 0.94991 0.5
414 1 0.65 0.9999 0.5
400 1 0.725 0.94991 0.5
415 1 0.7 0.9999 0.5
402 1 0.775 0.94991 0.5
416 1 0.75 0.9999 0.5
417 1 0.8 0.9999 0.5
404 1 0.825 0.94991 0.5
418 1 0.85 0.9999 0.5
406 1 0.875 0.94991 0.5
408 1 0.925 0.94991 0.5
419 1 0.9 0.9999 0.5
410 1 0.975 0.94991 0.5
420 1 0.95 0.9999 0.5
ITEM: TIMESTEP
250
ITEM: NUMBER OF ATOMS
420
ITEM: BOX BOUNDS pp ss pp
0.0000000000000000e+00 2.2653923264628304e+01
-1.9618873042551413e-03 1.9884117859341231e+01
-2.8317404080785380e-01 2.8317404080785380e-01
ITEM: ATOMS id type xs ys zs
1 2 0 9.86563e-05 0.5
2 2 0.025 0.0494268 0.5
3 2 0.05 9.86563e-05 0.5
4 2 0.075 0.0494268 0.5
5 2 0.1 9.86563e-05 0.5
6 2 0.125 0.0494268 0.5
7 2 0.15 9.86563e-05 0.5
8 2 0.175 0.0494268 0.5
9 2 0.2 9.86563e-05 0.5
10 2 0.225 0.0494268 0.5
11 2 0.25 9.86563e-05 0.5
12 2 0.275 0.0494268 0.5
13 2 0.3 9.86563e-05 0.5
14 2 0.325 0.0494268 0.5
15 2 0.35 9.86563e-05 0.5
16 2 0.375 0.0494268 0.5
17 2 0.4 9.86563e-05 0.5
18 2 0.425 0.0494268 0.5
19 2 0.45 9.86563e-05 0.5
20 2 0.475 0.0494268 0.5
21 2 0 0.098755 0.5
23 2 0.05 0.098755 0.5
25 2 0.1 0.098755 0.5
27 2 0.15 0.098755 0.5
29 2 0.2 0.098755 0.5
31 2 0.25 0.098755 0.5
33 2 0.3 0.098755 0.5
35 2 0.35 0.098755 0.5
37 2 0.4 0.098755 0.5
39 2 0.45 0.098755 0.5
22 1 0.0270633 0.147058 0.5
100 1 0.474261 0.440855 0.5
43 1 0.052135 0.196097 0.5
24 1 0.0758573 0.149359 0.5
45 1 0.101693 0.193367 0.5
26 1 0.124234 0.146545 0.5
28 1 0.178708 0.146579 0.5
47 1 0.150617 0.196708 0.5
30 1 0.229989 0.150342 0.5
49 1 0.199375 0.197467 0.5
32 1 0.276724 0.149835 0.5
51 1 0.249247 0.200437 0.5
53 1 0.302697 0.198752 0.5
34 1 0.32698 0.146387 0.5
55 1 0.353498 0.193706 0.5
36 1 0.375887 0.143984 0.5
38 1 0.425888 0.144209 0.5
57 1 0.403169 0.192555 0.5
40 1 0.478257 0.149424 0.5
59 1 0.449492 0.191456 0.5
42 1 0.0257309 0.243381 0.5
44 1 0.0733665 0.244268 0.5
46 1 0.123676 0.24589 0.5
48 1 0.172227 0.244341 0.5
50 1 0.224457 0.249769 0.5
52 1 0.280243 0.244903 0.5
54 1 0.330366 0.245916 0.5
56 1 0.378022 0.242627 0.5
58 1 0.42783 0.242512 0.5
60 1 0.475944 0.246404 0.5
98 1 0.423939 0.444417 0.5
62 1 0.0245271 0.340598 0.5
63 1 0.0485616 0.291304 0.5
64 1 0.0754016 0.344009 0.5
65 1 0.101761 0.294396 0.5
66 1 0.125598 0.347877 0.5
67 1 0.149768 0.296469 0.5
68 1 0.173722 0.347827 0.5
69 1 0.20029 0.297437 0.5
70 1 0.226899 0.343623 0.5
71 1 0.255322 0.293873 0.5
72 1 0.276815 0.346636 0.5
73 1 0.303548 0.294446 0.5
74 1 0.326885 0.346813 0.5
75 1 0.353094 0.29328 0.5
76 1 0.376307 0.340068 0.5
77 1 0.400564 0.292446 0.5
78 1 0.422919 0.346399 0.5
79 1 0.449837 0.293295 0.5
80 1 0.474375 0.345991 0.5
96 1 0.371554 0.44743 0.5
83 1 0.0535871 0.389554 0.5
85 1 0.108025 0.396418 0.5
87 1 0.154616 0.401374 0.5
89 1 0.201804 0.392888 0.5
91 1 0.253294 0.395401 0.5
93 1 0.29985 0.397505 0.5
95 1 0.348403 0.396663 0.5
97 1 0.396732 0.394023 0.5
99 1 0.448502 0.396597 0.5
82 1 0.0283394 0.439922 0.5
84 1 0.0795359 0.442294 0.5
86 1 0.12828 0.45234 0.5
88 1 0.176978 0.45023 0.5
90 1 0.223787 0.441038 0.5
92 1 0.27611 0.448073 0.5
94 1 0.323082 0.446415 0.5
291 1 0.498297 0.395448 0.5
103 1 0.0511207 0.490981 0.5
105 1 0.0987975 0.496407 0.5
41 1 0.000696199 0.194673 0.5
311 1 0.500462 0.489711 0.5
113 1 0.29762 0.494199 0.5
115 1 0.349157 0.496708 0.5
117 1 0.399909 0.492138 0.5
119 1 0.448646 0.493753 0.5
81 1 0.0025234 0.39014 0.5
109 1 0.199298 0.499824 0.5
111 1 0.248254 0.494727 0.5
101 1 0.00214972 0.490426 0.5
61 1 0.00278331 0.295649 0.5
107 1 0.150407 0.499866 0.5
102 1 0.0244582 0.541688 0.5
331 1 0.496162 0.587107 0.5
104 1 0.0732893 0.541014 0.5
196 1 0.37456 0.934541 0.5
106 1 0.123034 0.547397 0.5
208 1 0.349609 0.989292 0.5
108 1 0.176155 0.54863 0.5
194 1 0.325437 0.93803 0.5
110 1 0.224002 0.547744 0.5
204 1 0.145539 0.995414 0.5
112 1 0.271274 0.542932 0.5
207 1 0.29732 0.99 0.5
114 1 0.325895 0.545474 0.5
206 1 0.245621 0.982926 0.5
116 1 0.374885 0.539173 0.5
192 1 0.275735 0.940276 0.5
118 1 0.424261 0.541799 0.5
205 1 0.200326 0.98995 0.5
120 1 0.47539 0.538879 0.5
210 1 0.450196 0.990818 0.5
123 1 0.0479208 0.591496 0.5
125 1 0.0982498 0.591763 0.5
127 1 0.150811 0.594727 0.5
129 1 0.198611 0.599035 0.5
131 1 0.24847 0.596798 0.5
133 1 0.297764 0.59037 0.5
135 1 0.349336 0.592051 0.5
137 1 0.398371 0.59118 0.5
139 1 0.44789 0.588985 0.5
122 1 0.0235229 0.642939 0.5
200 1 0.48159 0.936035 0.5
143 1 0.0489222 0.691658 0.5
124 1 0.0749465 0.642143 0.5
145 1 0.098767 0.692172 0.5
126 1 0.120835 0.643963 0.5
128 1 0.172472 0.64557 0.5
147 1 0.14594 0.695985 0.5
130 1 0.222171 0.648172 0.5
149 1 0.193713 0.69252 0.5
132 1 0.276754 0.643333 0.5
151 1 0.251826 0.693162 0.5
153 1 0.300969 0.69513 0.5
134 1 0.324554 0.640663 0.5
155 1 0.351548 0.694881 0.5
136 1 0.376417 0.640964 0.5
138 1 0.42477 0.640684 0.5
157 1 0.400498 0.691543 0.5
140 1 0.472206 0.634098 0.5
159 1 0.451256 0.688781 0.5
142 1 0.0239565 0.740255 0.5
144 1 0.0749405 0.740075 0.5
146 1 0.121179 0.743943 0.5
148 1 0.172637 0.746393 0.5
150 1 0.223132 0.738807 0.5
152 1 0.27321 0.746098 0.5
154 1 0.328505 0.745696 0.5
156 1 0.380358 0.739481 0.5
158 1 0.429903 0.737277 0.5
160 1 0.481246 0.735899 0.5
190 1 0.220131 0.938093 0.5
162 1 0.0218314 0.841363 0.5
163 1 0.0465595 0.789447 0.5
164 1 0.071864 0.839008 0.5
165 1 0.0955476 0.788486 0.5
166 1 0.119784 0.843083 0.5
167 1 0.145888 0.793803 0.5
168 1 0.170618 0.845436 0.5
169 1 0.19545 0.795933 0.5
170 1 0.219554 0.846544 0.5
171 1 0.245788 0.790722 0.5
172 1 0.268406 0.842952 0.5
173 1 0.301893 0.792339 0.5
174 1 0.320714 0.840555 0.5
175 1 0.355026 0.79423 0.5
176 1 0.377184 0.84459 0.5
177 1 0.407321 0.787175 0.5
178 1 0.430662 0.835904 0.5
179 1 0.457598 0.787441 0.5
180 1 0.477429 0.837755 0.5
209 1 0.39803 0.981827 0.5
183 1 0.04616 0.893435 0.5
185 1 0.093766 0.890883 0.5
187 1 0.143957 0.890615 0.5
189 1 0.192364 0.894491 0.5
191 1 0.247823 0.893574 0.5
193 1 0.297905 0.890942 0.5
195 1 0.349794 0.889056 0.5
197 1 0.405238 0.889252 0.5
199 1 0.451874 0.888905 0.5
182 1 0.0194208 0.941804 0.5
198 1 0.424655 0.938312 0.5
202 1 0.0400554 0.993577 0.5
184 1 0.0671218 0.945231 0.5
203 1 0.0889944 0.995798 0.5
186 1 0.117649 0.941312 0.5
188 1 0.168469 0.944747 0.5
141 1 -0.00103452 0.691806 0.5
211 2 0.5 9.86563e-05 0.5
212 2 0.525 0.0494268 0.5
213 2 0.55 9.86563e-05 0.5
214 2 0.575 0.0494268 0.5
215 2 0.6 9.86563e-05 0.5
216 2 0.625 0.0494268 0.5
217 2 0.65 9.86563e-05 0.5
218 2 0.675 0.0494268 0.5
219 2 0.7 9.86563e-05 0.5
220 2 0.725 0.0494268 0.5
221 2 0.75 9.86563e-05 0.5
222 2 0.775 0.0494268 0.5
223 2 0.8 9.86563e-05 0.5
224 2 0.825 0.0494268 0.5
225 2 0.85 9.86563e-05 0.5
226 2 0.875 0.0494268 0.5
227 2 0.9 9.86563e-05 0.5
228 2 0.925 0.0494268 0.5
229 2 0.95 9.86563e-05 0.5
230 2 0.975 0.0494268 0.5
231 2 0.5 0.098755 0.5
233 2 0.55 0.098755 0.5
235 2 0.6 0.098755 0.5
237 2 0.65 0.098755 0.5
239 2 0.7 0.098755 0.5
241 2 0.75 0.098755 0.5
243 2 0.8 0.098755 0.5
245 2 0.85 0.098755 0.5
247 2 0.9 0.098755 0.5
249 2 0.95 0.098755 0.5
232 1 0.527931 0.147552 0.5
251 1 0.503845 0.198319 0.5
253 1 0.552928 0.19968 0.5
234 1 0.577616 0.145666 0.5
255 1 0.603367 0.197664 0.5
236 1 0.62706 0.146664 0.5
238 1 0.674835 0.145512 0.5
257 1 0.651173 0.197621 0.5
240 1 0.724669 0.144129 0.5
259 1 0.699345 0.195946 0.5
242 1 0.772235 0.148513 0.5
261 1 0.74793 0.198799 0.5
263 1 0.797065 0.197121 0.5
244 1 0.821856 0.147692 0.5
265 1 0.845675 0.196894 0.5
246 1 0.870435 0.15043 0.5
248 1 0.924423 0.149383 0.5
267 1 0.89537 0.197937 0.5
250 1 0.974301 0.148736 0.5
269 1 0.950501 0.19635 0.5
252 1 0.524206 0.248705 0.5
254 1 0.576277 0.249274 0.5
256 1 0.623651 0.245449 0.5
258 1 0.676818 0.248078 0.5
260 1 0.723516 0.246481 0.5
262 1 0.771424 0.247263 0.5
264 1 0.819074 0.248826 0.5
266 1 0.873387 0.248331 0.5
268 1 0.924925 0.247065 0.5
270 1 0.976826 0.24337 0.5
317 1 0.650816 0.493243 0.5
272 1 0.525757 0.347604 0.5
273 1 0.550561 0.297603 0.5
274 1 0.57584 0.346747 0.5
275 1 0.601047 0.297426 0.5
276 1 0.626683 0.349587 0.5
277 1 0.652796 0.298444 0.5
278 1 0.67493 0.34808 0.5
279 1 0.699933 0.296315 0.5
280 1 0.725667 0.345977 0.5
281 1 0.750425 0.297116 0.5
282 1 0.778384 0.349016 0.5
283 1 0.797055 0.298503 0.5
284 1 0.825655 0.34274 0.5
285 1 0.846721 0.294945 0.5
286 1 0.874807 0.340653 0.5
287 1 0.905288 0.296735 0.5
288 1 0.928726 0.345159 0.5
289 1 0.953451 0.291245 0.5
290 1 0.976068 0.343953 0.5
327 1 0.900761 0.489359 0.5
293 1 0.551598 0.394036 0.5
295 1 0.604379 0.398046 0.5
297 1 0.653249 0.401439 0.5
299 1 0.705619 0.396791 0.5
301 1 0.753319 0.402878 0.5
303 1 0.798932 0.399852 0.5
305 1 0.848627 0.393061 0.5
307 1 0.899187 0.389291 0.5
309 1 0.952768 0.393096 0.5
292 1 0.526856 0.440622 0.5
294 1 0.575326 0.444127 0.5
296 1 0.624978 0.44831 0.5
298 1 0.677525 0.446637 0.5
300 1 0.728353 0.449493 0.5
302 1 0.779834 0.448919 0.5
304 1 0.827238 0.447076 0.5
306 1 0.873702 0.439741 0.5
308 1 0.924308 0.441688 0.5
310 1 0.977387 0.443594 0.5
319 1 0.701837 0.494008 0.5
323 1 0.801505 0.497687 0.5
329 1 0.949606 0.489381 0.5
325 1 0.851759 0.493377 0.5
313 1 0.548331 0.492902 0.5
315 1 0.599925 0.493308 0.5
321 1 0.750661 0.497646 0.5
271 1 0.501599 0.300819 0.5
201 1 0.992731 0.989723 0.5
312 1 0.521008 0.537861 0.5
181 1 0.995575 0.888661 0.5
314 1 0.572309 0.541325 0.5
351 1 0.501067 0.686957 0.5
316 1 0.625641 0.54757 0.5
417 1 0.79766 0.986121 0.5
318 1 0.674414 0.540773 0.5
161 1 0.998326 0.79251 0.5
320 1 0.725865 0.540942 0.5
121 1 1.00002 0.592062 0.5
322 1 0.776812 0.544518 0.5
419 1 0.896154 0.995464 0.5
324 1 0.826174 0.545081 0.5
408 1 0.91898 0.945138 0.5
326 1 0.876819 0.542505 0.5
418 1 0.848508 0.996803 0.5
328 1 0.926734 0.538458 0.5
406 1 0.869979 0.944251 0.5
330 1 0.976573 0.538634 0.5
404 1 0.822791 0.935543 0.5
333 1 0.544364 0.586472 0.5
335 1 0.59714 0.590726 0.5
337 1 0.650133 0.59394 0.5
339 1 0.699784 0.589064 0.5
341 1 0.750713 0.589014 0.5
343 1 0.800947 0.590566 0.5
345 1 0.852096 0.593617 0.5
347 1 0.901128 0.591208 0.5
349 1 0.951245 0.588245 0.5
332 1 0.52345 0.638766 0.5
420 1 0.94516 0.991831 0.5
353 1 0.551154 0.685106 0.5
334 1 0.574062 0.63884 0.5
355 1 0.599928 0.685953 0.5
336 1 0.621333 0.638546 0.5
338 1 0.678111 0.641131 0.5
357 1 0.65099 0.686081 0.5
340 1 0.72749 0.640516 0.5
359 1 0.704581 0.688108 0.5
342 1 0.77775 0.643001 0.5
361 1 0.753848 0.689979 0.5
363 1 0.802198 0.690897 0.5
344 1 0.825161 0.639387 0.5
365 1 0.849919 0.688547 0.5
346 1 0.87374 0.640606 0.5
348 1 0.926006 0.640162 0.5
367 1 0.899865 0.687585 0.5
350 1 0.974703 0.639585 0.5
369 1 0.949444 0.687581 0.5
352 1 0.529291 0.738824 0.5
354 1 0.577472 0.737416 0.5
356 1 0.625178 0.735134 0.5
358 1 0.674125 0.734652 0.5
360 1 0.730095 0.739087 0.5
362 1 0.777311 0.73656 0.5
364 1 0.82636 0.741329 0.5
366 1 0.872878 0.742112 0.5
368 1 0.922319 0.737281 0.5
370 1 0.96952 0.740569 0.5
371 1 0.504152 0.787373 0.5
372 1 0.527767 0.835035 0.5
373 1 0.552834 0.787635 0.5
374 1 0.575423 0.836856 0.5
375 1 0.600515 0.787308 0.5
376 1 0.623165 0.834476 0.5
377 1 0.651184 0.784842 0.5
378 1 0.67912 0.833384 0.5
379 1 0.702254 0.785716 0.5
380 1 0.725572 0.834463 0.5
381 1 0.753562 0.786106 0.5
382 1 0.776529 0.837805 0.5
383 1 0.799894 0.790406 0.5
384 1 0.8261 0.83713 0.5
385 1 0.853145 0.790036 0.5
386 1 0.874497 0.840613 0.5
387 1 0.900451 0.788319 0.5
388 1 0.922381 0.837347 0.5
389 1 0.948118 0.78859 0.5
390 1 0.971006 0.84033 0.5
391 1 0.501177 0.887611 0.5
393 1 0.550975 0.884433 0.5
395 1 0.603659 0.884338 0.5
397 1 0.653126 0.886205 0.5
399 1 0.701093 0.891596 0.5
401 1 0.750345 0.887189 0.5
403 1 0.799813 0.888662 0.5
405 1 0.851243 0.889971 0.5
407 1 0.897523 0.893953 0.5
409 1 0.945906 0.888828 0.5
392 1 0.532445 0.944768 0.5
410 1 0.967518 0.939882 0.5
412 1 0.556515 0.997619 0.5
394 1 0.579021 0.93014 0.5
413 1 0.600207 0.979352 0.5
396 1 0.628943 0.932803 0.5
398 1 0.676519 0.939131 0.5
414 1 0.648114 0.987218 0.5
400 1 0.72747 0.935662 0.5
415 1 0.700931 0.985582 0.5
402 1 0.773832 0.935049 0.5
416 1 0.752744 0.983288 0.5
411 1 0.50292 0.988097 0.5
ITEM: TIMESTEP
500
ITEM: NUMBER OF ATOMS
420
ITEM: BOX BOUNDS pp ss pp
0.0000000000000000e+00 2.2653923264628304e+01
-1.9618873042551413e-03 1.9760668528628575e+01
-2.8317404080785380e-01 2.8317404080785380e-01
ITEM: ATOMS id type xs ys zs
1 2 0 9.92726e-05 0.5
2 2 0.025 0.0497356 0.5
3 2 0.05 9.92726e-05 0.5
4 2 0.075 0.0497356 0.5
5 2 0.1 9.92726e-05 0.5
6 2 0.125 0.0497356 0.5
7 2 0.15 9.92726e-05 0.5
8 2 0.175 0.0497356 0.5
9 2 0.2 9.92726e-05 0.5
10 2 0.225 0.0497356 0.5
11 2 0.25 9.92726e-05 0.5
12 2 0.275 0.0497356 0.5
13 2 0.3 9.92726e-05 0.5
14 2 0.325 0.0497356 0.5
15 2 0.35 9.92726e-05 0.5
16 2 0.375 0.0497356 0.5
17 2 0.4 9.92726e-05 0.5
18 2 0.425 0.0497356 0.5
19 2 0.45 9.92726e-05 0.5
20 2 0.475 0.0497356 0.5
21 2 0 0.0993719 0.5
23 2 0.05 0.0993719 0.5
25 2 0.1 0.0993719 0.5
27 2 0.15 0.0993719 0.5
29 2 0.2 0.0993719 0.5
31 2 0.25 0.0993719 0.5
33 2 0.3 0.0993719 0.5
35 2 0.35 0.0993719 0.5
37 2 0.4 0.0993719 0.5
39 2 0.45 0.0993719 0.5
22 1 0.0250292 0.150816 0.5
100 1 0.474865 0.448152 0.5
43 1 0.0523163 0.203548 0.5
24 1 0.0748642 0.151337 0.5
45 1 0.0996073 0.198434 0.5
26 1 0.122611 0.14899 0.5
28 1 0.171361 0.146032 0.5
47 1 0.148353 0.197287 0.5
30 1 0.226805 0.147324 0.5
49 1 0.197028 0.192893 0.5
32 1 0.2756 0.149167 0.5
51 1 0.248103 0.198856 0.5
53 1 0.299826 0.198738 0.5
34 1 0.326008 0.148422 0.5
55 1 0.347598 0.200433 0.5
36 1 0.373382 0.152134 0.5
38 1 0.422552 0.148561 0.5
57 1 0.396085 0.200582 0.5
40 1 0.472172 0.146975 0.5
59 1 0.445887 0.200238 0.5
42 1 0.0246716 0.247955 0.5
44 1 0.0752021 0.252019 0.5
46 1 0.126396 0.248262 0.5
48 1 0.175155 0.249244 0.5
50 1 0.224112 0.245682 0.5
52 1 0.274523 0.248941 0.5
54 1 0.323087 0.249016 0.5
56 1 0.371883 0.251567 0.5
58 1 0.422679 0.249402 0.5
60 1 0.47015 0.24755 0.5
98 1 0.427305 0.444633 0.5
62 1 0.024674 0.348544 0.5
63 1 0.0504542 0.301309 0.5
64 1 0.0751682 0.347104 0.5
65 1 0.0994614 0.30019 0.5
66 1 0.123473 0.349257 0.5
67 1 0.149746 0.298508 0.5
68 1 0.173854 0.344627 0.5
69 1 0.200636 0.299147 0.5
70 1 0.22481 0.347363 0.5
71 1 0.250628 0.296892 0.5
72 1 0.272995 0.349512 0.5
73 1 0.297462 0.300126 0.5
74 1 0.319838 0.34928 0.5
75 1 0.34549 0.298966 0.5
76 1 0.373055 0.34738 0.5
77 1 0.401234 0.299625 0.5
78 1 0.425008 0.349835 0.5
79 1 0.450651 0.299368 0.5
80 1 0.477071 0.348098 0.5
96 1 0.378238 0.446471 0.5
83 1 0.0508063 0.395267 0.5
85 1 0.0991976 0.396824 0.5
87 1 0.149683 0.399781 0.5
89 1 0.198925 0.399031 0.5
91 1 0.251059 0.396824 0.5
93 1 0.299767 0.400678 0.5
95 1 0.352166 0.394612 0.5
97 1 0.399465 0.395811 0.5
99 1 0.451379 0.399261 0.5
82 1 0.0264964 0.447217 0.5
84 1 0.0754646 0.445155 0.5
86 1 0.121922 0.449122 0.5
88 1 0.173321 0.445931 0.5
90 1 0.224381 0.446872 0.5
92 1 0.276763 0.447129 0.5
94 1 0.327303 0.444353 0.5
111 1 0.246938 0.495795 0.5
103 1 0.0527577 0.494337 0.5
105 1 0.09898 0.499071 0.5
109 1 0.199799 0.495314 0.5
251 1 0.496595 0.196625 0.5
113 1 0.302598 0.496141 0.5
115 1 0.351916 0.495407 0.5
117 1 0.403465 0.497555 0.5
101 1 0.00300905 0.499645 0.5
81 1 0.00318519 0.399701 0.5
107 1 0.150426 0.496727 0.5
311 1 0.499781 0.497494 0.5
41 1 0.00260807 0.198391 0.5
291 1 0.500131 0.396045 0.5
411 1 0.497517 0.989398 0.5
102 1 0.0256138 0.547438 0.5
188 1 0.173486 0.948696 0.5
104 1 0.07552 0.548629 0.5
196 1 0.37562 0.942222 0.5
106 1 0.12423 0.547363 0.5
208 1 0.348528 0.995839 0.5
108 1 0.175444 0.545705 0.5
194 1 0.32511 0.945587 0.5
110 1 0.224041 0.548491 0.5
204 1 0.15084 0.997409 0.5
112 1 0.275394 0.541447 0.5
207 1 0.300523 0.994316 0.5
114 1 0.327647 0.548181 0.5
206 1 0.24627 0.998622 0.5
116 1 0.374965 0.545061 0.5
192 1 0.27764 0.944929 0.5
118 1 0.42635 0.549582 0.5
205 1 0.19881 0.998321 0.5
120 1 0.478167 0.550746 0.5
210 1 0.447906 0.989649 0.5
123 1 0.0512946 0.596933 0.5
125 1 0.102926 0.595546 0.5
127 1 0.150491 0.595773 0.5
129 1 0.198136 0.59717 0.5
131 1 0.25144 0.595334 0.5
133 1 0.300751 0.593245 0.5
135 1 0.349017 0.597932 0.5
137 1 0.400617 0.597265 0.5
139 1 0.448766 0.599517 0.5
122 1 0.0272012 0.651868 0.5
200 1 0.473827 0.943693 0.5
143 1 0.0516702 0.699997 0.5
124 1 0.0791949 0.644491 0.5
145 1 0.0981902 0.698159 0.5
126 1 0.127563 0.646877 0.5
128 1 0.174708 0.647473 0.5
147 1 0.150162 0.69727 0.5
130 1 0.223247 0.647189 0.5
149 1 0.199203 0.696405 0.5
132 1 0.274505 0.643545 0.5
151 1 0.248235 0.694002 0.5
153 1 0.299067 0.697347 0.5
134 1 0.322288 0.646768 0.5
155 1 0.349122 0.697465 0.5
136 1 0.373481 0.646514 0.5
138 1 0.424832 0.647238 0.5
157 1 0.397829 0.698276 0.5
140 1 0.474388 0.648511 0.5
159 1 0.448643 0.701345 0.5
142 1 0.0243748 0.74785 0.5
144 1 0.0744895 0.749129 0.5
146 1 0.125992 0.748796 0.5
148 1 0.174976 0.747768 0.5
150 1 0.224307 0.748301 0.5
152 1 0.272798 0.745218 0.5
154 1 0.324191 0.750219 0.5
156 1 0.371588 0.747697 0.5
158 1 0.420893 0.747119 0.5
160 1 0.472335 0.750332 0.5
190 1 0.226616 0.944976 0.5
162 1 0.0252045 0.847339 0.5
163 1 0.0488092 0.794832 0.5
164 1 0.0745548 0.847816 0.5
165 1 0.0999646 0.795139 0.5
166 1 0.123752 0.845636 0.5
167 1 0.150091 0.798027 0.5
168 1 0.175624 0.848551 0.5
169 1 0.199959 0.796989 0.5
170 1 0.227085 0.849889 0.5
171 1 0.247374 0.798582 0.5
172 1 0.273927 0.847096 0.5
173 1 0.297081 0.797946 0.5
174 1 0.323289 0.846814 0.5
175 1 0.348154 0.798081 0.5
176 1 0.373117 0.845428 0.5
177 1 0.399122 0.794995 0.5
178 1 0.421334 0.844133 0.5
179 1 0.448241 0.796829 0.5
180 1 0.471062 0.846429 0.5
209 1 0.397941 0.993675 0.5
183 1 0.0513627 0.899791 0.5
185 1 0.102852 0.897092 0.5
187 1 0.150387 0.898028 0.5
189 1 0.201699 0.899574 0.5
191 1 0.251165 0.897631 0.5
193 1 0.301507 0.896993 0.5
195 1 0.348106 0.896265 0.5
197 1 0.398953 0.895293 0.5
199 1 0.44814 0.895059 0.5
182 1 0.0242652 0.947585 0.5
198 1 0.425626 0.943473 0.5
202 1 0.0477522 0.996337 0.5
184 1 0.0724879 0.948077 0.5
203 1 0.0986198 0.99972 0.5
186 1 0.125145 0.948484 0.5
371 1 0.496501 0.79687 0.5
391 1 0.496926 0.89315 0.5
351 1 0.498058 0.697672 0.5
141 1 0.00297314 0.698669 0.5
119 1 0.451821 0.503515 0.5
181 1 0.0020748 0.894876 0.5
121 1 0.00165611 0.599964 0.5
211 2 0.5 9.92726e-05 0.5
212 2 0.525 0.0497356 0.5
213 2 0.55 9.92726e-05 0.5
214 2 0.575 0.0497356 0.5
215 2 0.6 9.92726e-05 0.5
216 2 0.625 0.0497356 0.5
217 2 0.65 9.92726e-05 0.5
218 2 0.675 0.0497356 0.5
219 2 0.7 9.92726e-05 0.5
220 2 0.725 0.0497356 0.5
221 2 0.75 9.92726e-05 0.5
222 2 0.775 0.0497356 0.5
223 2 0.8 9.92726e-05 0.5
224 2 0.825 0.0497356 0.5
225 2 0.85 9.92726e-05 0.5
226 2 0.875 0.0497356 0.5
227 2 0.9 9.92726e-05 0.5
228 2 0.925 0.0497356 0.5
229 2 0.95 9.92726e-05 0.5
230 2 0.975 0.0497356 0.5
231 2 0.5 0.0993719 0.5
233 2 0.55 0.0993719 0.5
235 2 0.6 0.0993719 0.5
237 2 0.65 0.0993719 0.5
239 2 0.7 0.0993719 0.5
241 2 0.75 0.0993719 0.5
243 2 0.8 0.0993719 0.5
245 2 0.85 0.0993719 0.5
247 2 0.9 0.0993719 0.5
249 2 0.95 0.0993719 0.5
232 1 0.52505 0.147903 0.5
271 1 0.499896 0.295038 0.5
253 1 0.549577 0.197674 0.5
234 1 0.576602 0.148506 0.5
255 1 0.602964 0.197983 0.5
236 1 0.626225 0.1468 0.5
238 1 0.675346 0.147209 0.5
257 1 0.65268 0.195488 0.5
240 1 0.728108 0.147475 0.5
259 1 0.704714 0.197433 0.5
242 1 0.777611 0.148049 0.5
261 1 0.755395 0.197029 0.5
263 1 0.802342 0.196994 0.5
244 1 0.825559 0.148245 0.5
265 1 0.852874 0.197159 0.5
246 1 0.875086 0.148297 0.5
248 1 0.926998 0.149453 0.5
267 1 0.901294 0.198968 0.5
250 1 0.976092 0.149518 0.5
269 1 0.951507 0.199304 0.5
252 1 0.525035 0.245862 0.5
254 1 0.575192 0.244762 0.5
256 1 0.624775 0.245356 0.5
258 1 0.676332 0.242632 0.5
260 1 0.729872 0.243998 0.5
262 1 0.77948 0.246805 0.5
264 1 0.82863 0.246458 0.5
266 1 0.875444 0.247398 0.5
268 1 0.925068 0.248941 0.5
270 1 0.976916 0.246316 0.5
317 1 0.64996 0.492353 0.5
272 1 0.525053 0.346447 0.5
273 1 0.549657 0.297565 0.5
274 1 0.57534 0.34534 0.5
275 1 0.597624 0.29446 0.5
276 1 0.624388 0.344549 0.5
277 1 0.649833 0.298195 0.5
278 1 0.673551 0.349172 0.5
279 1 0.699517 0.291502 0.5
280 1 0.726235 0.346121 0.5
281 1 0.754812 0.294244 0.5
282 1 0.775476 0.347448 0.5
283 1 0.803371 0.296372 0.5
284 1 0.827023 0.345252 0.5
285 1 0.85208 0.296794 0.5
286 1 0.878754 0.345711 0.5
287 1 0.901971 0.297983 0.5
288 1 0.925653 0.349022 0.5
289 1 0.950522 0.297176 0.5
290 1 0.9783 0.351974 0.5
327 1 0.900378 0.495943 0.5
293 1 0.549433 0.394667 0.5
295 1 0.597931 0.395126 0.5
297 1 0.645816 0.394979 0.5
299 1 0.699729 0.392773 0.5
301 1 0.748949 0.394709 0.5
303 1 0.801083 0.395646 0.5
305 1 0.851826 0.395626 0.5
307 1 0.899583 0.395441 0.5
309 1 0.95187 0.400685 0.5