LAMMPS (29 Sep 2021 - Update 2)
# 2d micelle simulation

dimension	2

neighbor	0.3 bin
neigh_modify	delay 5

atom_style	bond

# Soft potential push-off

read_data	data.micelle
Reading data file ...
  orthogonal box = (0.0000000 0.0000000 -0.10000000) to (35.856860 35.856860 0.10000000)
  2 by 2 by 1 MPI processor grid
  reading atoms ...
  1200 atoms
  scanning bonds ...
  1 = max bonds/atom
  reading bonds ...
  300 bonds
Finding 1-2 1-3 1-4 neighbors ...
  special bond factors lj:    0        0        0       
  special bond factors coul:  0        0        0       
     2 = max # of 1-2 neighbors
     1 = max # of 1-3 neighbors
     1 = max # of 1-4 neighbors
     2 = max # of special neighbors
  special bonds CPU = 0.000 seconds
  read_data CPU = 0.025 seconds
special_bonds	fene
Finding 1-2 1-3 1-4 neighbors ...
  special bond factors lj:    0        1        1       
  special bond factors coul:  0        1        1       
     2 = max # of 1-2 neighbors
     2 = max # of special neighbors
  special bonds CPU = 0.000 seconds

pair_style	soft 1.12246
pair_coeff	* * 0.0 1.12246

bond_style 	harmonic
bond_coeff	1 50.0 0.75

velocity	all create 0.45 2349852

variable	prefactor equal ramp(1.0,20.0)

fix		1 all nve
fix		2 all temp/rescale 100 0.45 0.45 0.02 1.0
fix		3 all adapt 1 pair soft a * * v_prefactor
fix		4 all enforce2d

thermo		50
run		1000
Neighbor list info ...
  update every 1 steps, delay 5 steps, check yes
  max neighbors/atom: 2000, page size: 100000
  master list distance cutoff = 1.42246
  ghost atom cutoff = 1.42246
  binsize = 0.71123, bins = 51 51 1
  1 neighbor lists, perpetual/occasional/extra = 1 0 0
  (1) pair soft, perpetual
      attributes: half, newton on
      pair build: half/bin/newton
      stencil: half/bin/2d
      bin: standard
WARNING: Communication cutoff 1.42246 is shorter than a bond length based estimate of 1.425. This may lead to errors. (../comm.cpp:730)
Per MPI rank memory allocation (min/avg/max) = 4.126 | 4.126 | 4.127 Mbytes
Step Temp E_pair E_mol TotEng Press 
       0         0.45   0.40003481 2.2200223e-06   0.84966203   0.78952518 
      50   0.47411013   0.67721272  0.057404514    1.2083323    1.3375852 
     100         0.45   0.73046745  0.054836584     1.234929    2.3196516 
     150   0.67521742   0.72402001  0.043490075    1.4421648    2.8744416 
     200         0.45   0.78481891  0.076931503    1.3113754    3.0412388 
     250   0.66479018   0.69790602  0.081075564    1.4432178    3.6917024 
     300         0.45   0.76820218  0.066727591    1.2845548    3.7861054 
     350   0.67619136     0.625715  0.072722727    1.3740656    4.2861621 
     400         0.45   0.68527759  0.090724527    1.2256271    4.4725214 
     450   0.56702844   0.64402767  0.080555563    1.2911391    4.7402211 
     500         0.45   0.64883009  0.078376672    1.1768318    4.7919294 
     550     0.564664   0.58260368  0.080779475    1.2275766    4.9855705 
     600         0.45   0.58193041  0.088386617     1.119942     5.131481 
     650   0.52110993    0.5415273  0.097683746    1.1598867    5.2500294 
     700         0.45   0.50856787  0.088471208    1.0466641    5.2550165 
     750   0.51510855   0.47441291  0.089429375    1.0785216     5.375763 
     800         0.45   0.49926696  0.085958476    1.0348504    5.4665914 
     850   0.50688494   0.46614429  0.088962292    1.0615691     5.556932 
     900         0.45   0.47785593   0.10150857    1.0289895    5.7765975 
     950   0.49590559   0.46050477  0.096404887     1.052402    5.8649245 
    1000         0.45   0.47691182   0.08808163    1.0146185    6.0177568 
Loop time of 0.0520501 on 4 procs for 1000 steps with 1200 atoms

Performance: 8299689.133 tau/day, 19212.243 timesteps/s
98.4% CPU use with 4 MPI tasks x no OpenMP threads

MPI task timing breakdown:
Section |  min time  |  avg time  |  max time  |%varavg| %total
---------------------------------------------------------------
Pair    | 0.027302   | 0.027755   | 0.028677   |   0.3 | 53.32
Bond    | 0.0016855  | 0.0017668  | 0.0018487  |   0.2 |  3.39
Neigh   | 0.005725   | 0.0057529  | 0.0057798  |   0.0 | 11.05
Comm    | 0.0070538  | 0.008081   | 0.008614   |   0.7 | 15.53
Output  | 0.00021407 | 0.00022009 | 0.00023684 |   0.0 |  0.42
Modify  | 0.0062901  | 0.0063906  | 0.0064774  |   0.1 | 12.28
Other   |            | 0.002084   |            |       |  4.00

Nlocal:        300.000 ave         305 max         292 min
Histogram: 1 0 0 0 0 0 1 0 1 1
Nghost:        100.250 ave         108 max          93 min
Histogram: 1 0 1 0 0 0 1 0 0 1
Neighs:        784.000 ave         815 max         739 min
Histogram: 1 0 0 0 0 0 1 1 0 1

Total # of neighbors = 3136
Ave neighs/atom = 2.6133333
Ave special neighs/atom = 0.50000000
Neighbor list builds = 92
Dangerous builds = 0

unfix		3

# Main run

pair_style	lj/cut 2.5

# solvent/head - full-size and long-range

pair_coeff	1 1 0.7 1.0 2.5
pair_coeff	2 2 0.7 1.0 2.5
pair_coeff	1 2 0.7 1.0 2.5

# tail/tail - size-averaged and long-range

pair_coeff	3 3 0.7 0.75 2.5
pair_coeff	4 4 0.7 0.50 2.5
pair_coeff	3 4 0.7 0.67 2.5

# solvent/tail - full-size and repulsive

pair_coeff	1 3 0.7 1.0 1.12246
pair_coeff	1 4 0.7 1.0 1.12246

# head/tail - size-averaged and repulsive

pair_coeff	2 3 0.7 0.88 1.12246
pair_coeff	2 4 0.7 0.75 1.12246

thermo		50

dump		1 all atom 200 dump.micelle

#dump		2 all image 2000 image.*.jpg type type zoom 1.6
#dump_modify	2 pad 5 adiam 1 0.5 adiam 2 1.5 adiam 3 1.0 adiam 4 0.75

#dump		3 all movie 2000 movie.mpg type type zoom 1.6
#dump_modify	3 pad 5 adiam 1 0.5 adiam 2 1.5 adiam 3 1.0 adiam 4 0.75

reset_timestep	0
run		100000
Neighbor list info ...
  update every 1 steps, delay 5 steps, check yes
  max neighbors/atom: 2000, page size: 100000
  master list distance cutoff = 2.8
  ghost atom cutoff = 2.8
  binsize = 1.4, bins = 26 26 1
  1 neighbor lists, perpetual/occasional/extra = 1 0 0
  (1) pair lj/cut, perpetual
      attributes: half, newton on
      pair build: half/bin/newton
      stencil: half/bin/2d
      bin: standard
Per MPI rank memory allocation (min/avg/max) = 5.136 | 5.136 | 5.137 Mbytes
Step Temp E_pair E_mol TotEng Press 
       0         0.45   -1.1939314   0.08808163  -0.65622477    2.9762553 
      50   0.51662574   -1.2262363  0.064979643  -0.64506146    2.7990478 
     100         0.45   -1.2186686  0.077057042  -0.69198658     2.925108 
     150   0.47256928   -1.2355304  0.075665114  -0.68768986    2.6868533 
     200         0.45   -1.2525776  0.069079534  -0.73387311    2.5403098 
     250   0.47517173   -1.2604571   0.06017033  -0.72551104    2.5041459 
     300         0.45   -1.2644665  0.069391652  -0.74544989    2.4277643 
     350   0.45527932   -1.2743952   0.06818801  -0.75130731    2.3729341 
     400   0.46938162   -1.2842359  0.063961832  -0.75128358    2.3408232 
     450   0.46862552   -1.2741225  0.070142113  -0.73574537    2.3410302 
     500         0.45   -1.2885032  0.070817152  -0.76806104    2.2519128 
     550   0.44427863   -1.2760585  0.079678812   -0.7524713    2.2668971 
     600   0.45094399   -1.2884213  0.071902437  -0.76595062    2.2582279 
     650   0.46197161   -1.3020222  0.073148671  -0.76728692    2.1468877 
     700   0.45349819   -1.2797177  0.066638607   -0.7599588    2.2141864 
     750   0.46580467   -1.2884217  0.061936865  -0.76106837    2.2395829 
     800   0.46391483   -1.2865171  0.059142027   -0.7638468    2.2795058 
     850   0.46302446   -1.2963929  0.062235676  -0.77151861    2.2872501 
     900   0.45806882   -1.2788017  0.059884609  -0.76122996    2.3712064 
     950   0.46847963   -1.2953279  0.066250671    -0.760988    2.2458321 
    1000         0.45   -1.2964637  0.062632393  -0.78420631    2.1244279 
    1050   0.46038049   -1.3157564  0.062289487  -0.79347013    1.9873042 
    1100   0.43843497   -1.2935277  0.057973257  -0.79748489    2.1804438 
    1150   0.45280097   -1.3174933  0.065233545  -0.79983615    2.1068292 
    1200   0.45786145   -1.2876593  0.054333329  -0.77584603    2.1900754 
    1250    0.4622605   -1.3171925  0.065790216  -0.78952698    2.0469876 
    1300    0.4563712   -1.3138104   0.06840803  -0.78941149    2.0804098 
    1350   0.47328791   -1.3202157   0.05660397  -0.79071823    2.0537739 
    1400   0.45468895    -1.310659  0.063572191  -0.79277679      2.08434 
    1450   0.45485232   -1.2992435  0.058318475  -0.78645175    2.1293766 
    1500    0.4487941   -1.3023545  0.066457096  -0.78747726    2.2025399 
    1550   0.45320966   -1.2954252  0.062594619  -0.77999864    2.1296805 
    1600   0.46517223   -1.3176371  0.067771183  -0.78508129    2.0356711 
    1650   0.45950162   -1.2952732  0.055666095   -0.7804884    2.1049021 
    1700   0.46205827   -1.3040742   0.06374926  -0.77865175    2.0627352 
    1750   0.46381281   -1.3102034  0.063092379  -0.78368474    1.9524251 
    1800   0.44013283   -1.3024561  0.078888312  -0.78380174    2.1156116 
    1850   0.46705159   -1.3195012    0.0636666  -0.78917222    2.0470928 
    1900   0.46086908   -1.3114507  0.065375083  -0.78559056    2.0090643 
    1950   0.48481731   -1.3185501   0.06110389  -0.77303293    1.9120856 
    2000         0.45   -1.3120884  0.058415741  -0.80404764    1.9774951 
    2050   0.46306271   -1.3363191  0.069291586  -0.80435074    1.8875898 
    2100   0.46566786   -1.3243246  0.056092523  -0.80295225    1.9468387 
    2150   0.46021825   -1.3164274  0.063210925  -0.79338173    1.9896478 
    2200   0.45411003   -1.3239109  0.064486286  -0.80569301     2.026332 
    2250   0.45999829   -1.3258681   0.06814762  -0.79810551    1.9444725 
    2300   0.44890592   -1.2955952  0.058222397  -0.78884097    2.0971297 
    2350   0.44570883   -1.3022723  0.064018553  -0.79291634    2.1420146 
    2400   0.45404676   -1.3026357  0.065972294  -0.78299499    2.0435387 
    2450   0.45993871   -1.3061619  0.066994774  -0.77961168     2.022489 
    2500   0.45339713   -1.3047086  0.069921052  -0.78176827      2.01004 
    2550    0.4621321   -1.3080614  0.059522738  -0.78679168    2.0473197 
    2600         0.45   -1.3105344  0.052239508  -0.80866985    2.0561856 
    2650   0.44542829   -1.3141744  0.066250924  -0.80286636    2.0090844 
    2700   0.46741059   -1.3321319    0.0576372  -0.80747362    1.8707943 
    2750    0.4431796   -1.3200745  0.069124724  -0.80813953    1.8965327 
    2800   0.45299437   -1.3236903  0.060896273  -0.81017716    1.9560533 
    2850   0.44618383   -1.3225748  0.059512601  -0.81725014    1.9516602 
    2900   0.45685463   -1.3145936  0.063166617   -0.7949531    1.8566657 
    2950   0.44351507   -1.3175103  0.061315203  -0.81304964    1.9246668 
    3000    0.4525758   -1.3158588  0.058651144  -0.80500904    1.9534099 
    3050   0.45090635   -1.3251176  0.067717979  -0.80686898    1.8650492 
    3100   0.45660366   -1.3241995  0.060609155  -0.80736715    1.8543523 
    3150   0.45239857   -1.3193955  0.067042051  -0.80033192    1.8885836 
    3200   0.46786097   -1.3342973  0.063276915  -0.80354935    1.8169607 
    3250   0.45287154   -1.3286062   0.07040161  -0.80571042    1.8787729 
    3300   0.46034619   -1.3275232  0.064108386  -0.80345229    1.9693028 
    3350    0.4754275    -1.331455  0.056632978   -0.7997907    1.8787638 
    3400   0.46619517   -1.3402421   0.06262618  -0.81180922    1.8044127 
    3450   0.46628497   -1.3361421  0.070867987  -0.79937768    1.8936047 
    3500    0.4572598   -1.3253626  0.065113859     -0.80337    1.8987502 
    3550   0.46834344   -1.3255812  0.054656726  -0.80297136    1.9237654 
    3600   0.44905492   -1.3141937  0.060286057  -0.80522694    1.9997153 
    3650   0.46315245    -1.323354  0.052756881  -0.80783068    1.9937647 
    3700   0.45554084   -1.3151626  0.061017745  -0.79898367    1.9561913 
    3750   0.46435408   -1.3350389  0.067053375  -0.80401844    1.7776576 
    3800   0.45513665    -1.327098  0.062403805  -0.80993687    1.8461162 
    3850   0.46282404   -1.3326926  0.058484019  -0.81177026     1.831264 
    3900   0.45696889   -1.3246581  0.063236121  -0.80483387    1.8557574 
    3950   0.45828358   -1.3111667  0.056235643  -0.79702941    1.8789895 
    4000    0.4591303   -1.3415652  0.076140614   -0.8066769    1.8699502 
    4050   0.45302343   -1.3205614  0.069056139  -0.79885932    1.8641503 
    4100         0.45   -1.3450568  0.061876461  -0.83355538    1.7144356 
    4150    0.4471291   -1.3407486  0.068947081  -0.82504504    1.6965625 
    4200      0.43777   -1.3437995  0.069774137  -0.83662017    1.7405115 
    4250   0.46532918   -1.3445695  0.054374362  -0.82525375    1.5792824 
    4300   0.45611008   -1.3482539  0.060601589  -0.83192229    1.6651423 
    4350   0.45426667   -1.3452353  0.060783275  -0.83056389    1.6772411 
    4400    0.4575198   -1.3310404  0.061571277  -0.81233057    1.8014014 
    4450   0.45682211   -1.3362915  0.054462635  -0.82538742    1.7202618 
    4500   0.44234085   -1.3243217  0.063582818  -0.81876663    1.8329442 
    4550   0.44513343   -1.3423544  0.073780662  -0.82381123    1.7668732 
    4600   0.45445125   -1.3320793  0.051782518  -0.82622426     1.846645 
    4650    0.4617998   -1.3389912  0.057078977  -0.82049722    1.8161749 
    4700   0.45328179   -1.3348643  0.062725882  -0.81923438    1.7515314 
    4750   0.44856145    -1.334345  0.062022976  -0.82413439    1.7907509 
    4800   0.45980511   -1.3362507  0.055354717  -0.82147402    1.7780137 
    4850   0.43706903    -1.320153   0.06692447  -0.81652374    1.8901357 
    4900   0.46319406    -1.350687  0.061220055  -0.82665889    1.7487191 
    4950   0.43291487   -1.3108722  0.063263235  -0.81505486    1.9759547 
    5000   0.45151202   -1.3383388  0.062175635  -0.82502736    1.7782416 
    5050   0.45213525   -1.3313582  0.057652213  -0.82194756    1.8218252 
    5100   0.44761096   -1.3377754  0.070655824  -0.81988163    1.7293587 
    5150   0.43885503   -1.3248365  0.060570066  -0.82577712    1.8858445 
    5200   0.45974067   -1.3543151  0.060455822  -0.83450173    1.6138116 
    5250   0.45614609   -1.3437634  0.062072025  -0.82592545     1.729645 
    5300   0.46333704   -1.3319831  0.055338536  -0.81369363    1.7803803 
    5350   0.44603176   -1.3356717  0.067586533  -0.82242511    1.7593911 
    5400         0.45   -1.3580593  0.070537687  -0.83789665    1.5818133 
    5450   0.44889592   -1.3377073  0.060778098  -0.82840737    1.6649567 
    5500   0.43254411   -1.3466327  0.067745789   -0.8467033    1.6162325 
    5550   0.44104238   -1.3482864  0.061260026  -0.84635153    1.6617434 
    5600   0.44588533    -1.341367  0.061399808  -0.83445344    1.6667564 
    5650    0.4394083   -1.3369145  0.058184624  -0.83968779    1.7560952 
    5700   0.44922582    -1.350301  0.056178338  -0.84527121    1.6236886 
    5750    0.4400191   -1.3371419  0.055648914  -0.84184052    1.7050781 
    5800   0.43768628    -1.325235  0.056684655  -0.83122883    1.7701398 
    5850   0.44996241   -1.3462096  0.055881641  -0.84074053    1.6859352 
    5900   0.43544008    -1.337111  0.063343127  -0.83869061    1.7339914 
    5950   0.44568231   -1.3462356  0.062833918  -0.83809081    1.7298451 
    6000   0.46609926   -1.3562587  0.052728463   -0.8378194    1.6654112 
    6050    0.4633357   -1.3542917   0.05470149  -0.83664067     1.673618 
    6100   0.44359884   -1.3437595  0.055531208  -0.84499914    1.7562889 
    6150   0.45775119   -1.3495347  0.050990666  -0.84117433    1.7882558 
    6200   0.45559245   -1.3543851  0.055683267  -0.84348908     1.664514 
    6250   0.45111409   -1.3418547  0.053962902  -0.83715364    1.7130558 
    6300   0.44564454   -1.3442623   0.05797413  -0.84101504    1.7049919 
    6350   0.45063068   -1.3513873  0.068679915  -0.83245221    1.6433763 
    6400   0.45318594   -1.3563565  0.069481986  -0.83406621    1.5614909 
    6450   0.43696526    -1.356176  0.073470873  -0.84610401    1.6085616 
    6500    0.4545831   -1.3413232  0.060882779  -0.82623613    1.6535467 
    6550   0.44020499   -1.3338699  0.064257394  -0.82977434    1.7522363 
    6600   0.44738943    -1.339359  0.065734697  -0.82660769    1.6156075 
    6650   0.45273361   -1.3471493   0.05875865  -0.83603433    1.6899914 
    6700    0.4564641   -1.3506998  0.061009427  -0.83360671    1.5650123 
    6750   0.44700961   -1.3444331  0.066226757  -0.83156922    1.6752056 
    6800   0.45449406   -1.3451993  0.064386205  -0.82669776    1.6756974 
    6850    0.4609876   -1.3589142  0.070947485  -0.82736328    1.5537628 
    6900   0.44321821   -1.3349095  0.064688011  -0.82737268    1.6305789 
    6950   0.45290737   -1.3405437  0.066040959  -0.82197281    1.6514417 
    7000   0.45641739   -1.3429559  0.050591897  -0.83632699    1.7383569 
    7050   0.43763002     -1.33895  0.064437257  -0.83724739    1.6591963 
    7100   0.43269272   -1.3328237  0.063918623  -0.83657298    1.7221431 
    7150   0.44710966   -1.3434913  0.060264217  -0.83649005    1.6859721 
    7200   0.43545729   -1.3282924   0.06822081  -0.82497717    1.7591734 
    7250   0.44603399   -1.3369792  0.065507522  -0.82580937    1.6541194 
    7300   0.45658769   -1.3523739  0.062026965  -0.83413977    1.5237892 
    7350   0.46856138   -1.3610273  0.059765571  -0.83309083     1.566627 
    7400   0.44846853   -1.3455446  0.063215325  -0.83423446    1.6521888 
    7450   0.45623565   -1.3472205  0.064006819  -0.82735826    1.6356139 
    7500         0.45   -1.3582501  0.059355209  -0.84926988    1.4804645 
    7550   0.45054629   -1.3711591  0.066210413  -0.85477788    1.4391129 
    7600   0.44383862   -1.3523339  0.060526056  -0.84833907     1.488576 
    7650   0.45356004   -1.3751315  0.066075937  -0.85587346    1.4444786 
    7700   0.44284159   -1.3582001  0.063703344  -0.85202419     1.484603 
    7750   0.45071261   -1.3713574  0.065950634  -0.85506971    1.4714381 
    7800   0.45107569    -1.357619  0.057599003  -0.84932017    1.5472908 
    7850   0.42820946   -1.3404058  0.065613947  -0.84693923    1.6526322 
    7900   0.44050987   -1.3465457  0.060587921  -0.84581505    1.6496671 
    7950   0.44791816   -1.3536193  0.054546707  -0.85152775    1.6850075 
    8000   0.45980878   -1.3674766  0.062688541   -0.8453625    1.5439905 
    8050   0.45059465   -1.3576696  0.057229297  -0.85022115    1.5844571 
    8100   0.44524104   -1.3574741  0.055371823  -0.85723223    1.6327507 
    8150    0.4569539   -1.3661124  0.058147128  -0.85139212    1.4891443 
    8200   0.44047492   -1.3583348  0.068964688  -0.84926223    1.5386399 
    8250   0.46065805   -1.3552912  0.055478908  -0.83953812    1.5190145 
    8300   0.45974716   -1.3680972  0.063302282  -0.84543091    1.5022673 
    8350   0.44381423   -1.3550102   0.06390885  -0.84765693    1.5664096 
    8400    0.4408937   -1.3535012   0.06286097  -0.85011393      1.57066 
    8450   0.45696654   -1.3626364   0.06246406  -0.84358659     1.459304 
    8500   0.43477574   -1.3414963  0.063279683  -0.84380324    1.5665205 
    8550   0.44915824   -1.3570748  0.061667455  -0.84662345    1.5622317 
    8600   0.45547333   -1.3677531  0.057864972  -0.85479436    1.4846644 
    8650   0.44672699   -1.3475431  0.055256749  -0.84593161    1.5823678 
    8700   0.44532639    -1.346605   0.06230081  -0.83934893    1.4840836 
    8750   0.44710554   -1.3444109   0.05417957  -0.84349839    1.5402424 
    8800   0.43193669   -1.3416394  0.060646795  -0.84941583    1.6895784 
    8850   0.43566728   -1.3477224  0.068638089  -0.84378012    1.4766729 
    8900   0.43219273   -1.3455904  0.062646835  -0.85111102    1.5713369 
    8950   0.44837002   -1.3447977  0.052484543  -0.84431681    1.5990111 
    9000   0.44964716   -1.3604293  0.060444125  -0.85071268    1.5971659 
    9050   0.44089851   -1.3518361  0.058232776  -0.85307227    1.6405763 
    9100   0.44840085   -1.3587576  0.062831477  -0.84789895    1.5835135 
    9150   0.44126279   -1.3491359  0.061948311  -0.84629254    1.6142795 
    9200    0.4505003   -1.3672762  0.067584607  -0.84956672    1.5022774 
    9250   0.45315034   -1.3580773   0.06656555  -0.83873899    1.5151124 
    9300   0.44749251    -1.358934  0.069713806  -0.84210061    1.6170078 
    9350   0.44763208   -1.3575577  0.062580099  -0.84771859    1.5997075 
    9400   0.44127542   -1.3438687  0.062816537  -0.84014446    1.6408196 
    9450   0.44222881   -1.3523621  0.059771212  -0.85073063    1.6270452 
    9500   0.45906259   -1.3690264   0.06261615  -0.84773021    1.4960584 
    9550   0.45411414    -1.369929  0.069824352  -0.84636897    1.5384741 
    9600   0.44707228   -1.3551671   0.06532799  -0.84313936    1.6232657 
    9650   0.45482159   -1.3696264  0.060342928  -0.85484093    1.6533083 
    9700   0.44109056   -1.3401474  0.060438736  -0.83898569    1.7136735 
    9750   0.45487343   -1.3599136  0.056863366  -0.84855586    1.6225537 
    9800   0.46018297   -1.3631835  0.053841123  -0.84954289    1.4892941 
    9850   0.44287578   -1.3527836  0.060225015  -0.85005187    1.5737585 
    9900    0.4543552   -1.3658687    0.0564914  -0.85540077    1.5307797 
    9950   0.45939447   -1.3826085  0.073138171  -0.85045864    1.4378546 
   10000    0.4606197   -1.3788683  0.060258465  -0.85837401     1.469906 
   10050   0.46095837   -1.3654447  0.065858788  -0.83901169     1.581883 
   10100   0.44797956   -1.3525126  0.055401777  -0.84950461    1.6714098 
   10150   0.45333905   -1.3596441  0.062014243  -0.84466857    1.5784268 
   10200   0.46333251   -1.3717248    0.0578958  -0.85088261    1.4764442 
   10250   0.44909653   -1.3688495  0.073332448  -0.84679481    1.5209913 
   10300   0.45893355   -1.3729206  0.055897166   -0.8584723    1.4771832 
   10350   0.45504401   -1.3661404  0.057245756  -0.85422987    1.5396461 
   10400   0.45694668   -1.3632976   0.06173808  -0.84499359    1.5468216 
   10450   0.47488057   -1.3814144  0.052963466  -0.85396606    1.4757644 
   10500   0.46308469     -1.36454  0.058038172  -0.84380305    1.4640681 
   10550   0.46903326   -1.3734381  0.056779016  -0.84801665    1.4814254 
   10600   0.44320028    -1.353323  0.067354112  -0.84313793    1.6044226 
   10650   0.45584749    -1.361879  0.056062786  -0.85034863    1.5921046 
   10700   0.44985008   -1.3582746  0.063007699  -0.84579166    1.6179455 
   10750   0.45002299   -1.3566076  0.062950706  -0.84400894    1.6002377 
   10800   0.44068728   -1.3468712  0.056522002  -0.85002914    1.6739559 
   10850    0.4615092   -1.3674923   0.05558444  -0.85078326    1.5726938 
   10900   0.44746131   -1.3576662  0.061030774  -0.84954696    1.5941388 
   10950   0.45749742   -1.3648245  0.065515114  -0.84219325    1.5618107 
   11000   0.45993101    -1.368291  0.061309182  -0.84743411     1.563748 
   11050   0.45928418   -1.3579798  0.058571153   -0.8405072    1.6098755 
   11100   0.45618979   -1.3596546  0.059121168  -0.84472383    1.6127791 
   11150   0.46021012   -1.3609404  0.057455506  -0.84365832    1.7165918 
   11200   0.45992426   -1.3583182  0.058717904  -0.84005933    1.6100261 
   11250   0.46804368   -1.3607808  0.055649306  -0.83747784    1.5091315 
   11300         0.45   -1.3695842  0.062684178  -0.85727507    1.4094666 
   11350   0.44288612   -1.3696064  0.060125884  -0.86696349    1.4794058 
   11400   0.43100356   -1.3484042  0.055714819  -0.86204502    1.6646275 
   11450   0.44452218   -1.3614101  0.054176355  -0.86308204    1.5466573 
   11500   0.43127456   -1.3666498  0.057384563  -0.87835004     1.583888 
   11550   0.44696976   -1.3705395  0.053495956  -0.87044629    1.4688507 
   11600   0.43303497   -1.3583864  0.064177567  -0.86153477    1.6407341 
   11650   0.44878865   -1.3709208  0.055210053  -0.86729614    1.4517278 
   11700   0.44499962   -1.3581585  0.053875034  -0.85965473    1.4769685 
   11750   0.44650317    -1.369664  0.059567231  -0.86396572    1.4176818 
   11800   0.45345342   -1.3692148  0.050183236  -0.86595605    1.4622765 
   11850   0.44284863   -1.3601457   0.05362147   -0.8640446    1.4720098 
   11900   0.44514702   -1.3595479  0.045767848  -0.86900396    1.5477007 
   11950   0.44293439   -1.3674926  0.056795198  -0.86813208    1.4601126 
   12000   0.43614502   -1.3607062  0.061744843  -0.86317983    1.4829451 
   12050   0.44325363   -1.3656916  0.059665338  -0.86314197    1.5058487 
   12100   0.45309516   -1.3751091  0.054668285  -0.86772327    1.4791227 
   12150   0.46178115   -1.3865242  0.058659132  -0.86646877    1.3599283 
   12200   0.44859729   -1.3803485  0.061807942  -0.87031714    1.4358115 
   12250   0.43785128   -1.3664384  0.061344868  -0.86760714    1.5938174 
   12300    0.4546048   -1.3725028  0.051227536  -0.86704932    1.4436129 
   12350   0.45868859   -1.3832496  0.057387632  -0.86755566    1.4791517 
   12400   0.44371133    -1.365662  0.059987101   -0.8623333    1.5418668 
   12450   0.43302319   -1.3642142  0.067968489  -0.86358341    1.4805183 
   12500   0.45757658   -1.3835886  0.059534338  -0.86685899    1.4063219 
   12550   0.44161195     -1.36517  0.057593107  -0.86633292    1.5139974 
   12600   0.44439413   -1.3695966  0.055823177  -0.86974965    1.4309046 
   12650   0.45091237    -1.366944  0.056527944  -0.85987944    1.4035547 
   12700   0.44835705   -1.3717657   0.06449194  -0.85929033    1.4194575 
   12750   0.44671379   -1.3758023   0.06461109  -0.86484973    1.4344079 
   12800   0.44747564   -1.3702354  0.057393474  -0.86573916    1.3881517 
   12850   0.43731599   -1.3553334  0.060377321  -0.85800454    1.5034449 
   12900   0.44789581   -1.3608469  0.056965008  -0.85635933     1.511905 
   12950   0.43266629   -1.3534761  0.057478056  -0.86369233    1.6201621 
   13000   0.44293625   -1.3645641  0.059621563   -0.8623754    1.5406704 
   13050   0.44119371   -1.3775061  0.068436142  -0.86824396    1.4550341 
   13100   0.44851235    -1.375608   0.05641631  -0.87105316    1.4449072 
   13150   0.44468386   -1.3611611    0.0501452  -0.86670265    1.3967748 
   13200   0.44705503   -1.3692933  0.059005224   -0.8636056    1.3753163 
   13250   0.44024577   -1.3609667  0.061472997  -0.85961484    1.4517782 
   13300   0.45471043   -1.3761248  0.058811786  -0.86298153    1.3164123 
   13350   0.43477129   -1.3554101   0.05904136  -0.86195974    1.4259903 
   13400   0.43286974   -1.3600095  0.061503704  -0.86599676    1.4552781 
   13450   0.44979338   -1.3624019   0.05838854   -0.8545948    1.4546832 
   13500   0.45627141   -1.3731668  0.061127635  -0.85614798    1.3906904 
   13550   0.45002552   -1.3780794  0.058187451  -0.87024146     1.377019 
   13600    0.4536512   -1.3759272  0.056089831  -0.86656426     1.357123 
   13650   0.44585783   -1.3745462  0.065617654  -0.86344231    1.4193639 
   13700   0.45872459   -1.3863314  0.059544048  -0.86844505    1.3759946 
   13750   0.44822283   -1.3742761  0.058659738   -0.8677671    1.4984594 
   13800   0.46428035    -1.395977  0.066238819  -0.86584473    1.3334929 
   13850   0.44493159   -1.3698368  0.060651879  -0.86462409    1.5341532 
   13900   0.44602201   -1.3630083  0.063974885  -0.85338311    1.4886996 
   13950   0.45505664   -1.3700387  0.048768194  -0.86659312    1.5333353 
   14000   0.44291452   -1.3638085  0.055431322   -0.8658317    1.4426211 
   14050   0.44960981   -1.3763106   0.06488736   -0.8621881    1.4010823 
   14100   0.43795087   -1.3528557  0.060581461   -0.8546883    1.4696699 
   14150   0.43434374   -1.3579725  0.063152298   -0.8608384     1.528197 
   14200   0.43797827   -1.3609786   0.05688583  -0.86647951    1.4944398 
   14250   0.45290653   -1.3706792  0.055274169  -0.86287596    1.4363432 
   14300    0.4533889   -1.3842901  0.064639456  -0.86663958    1.2637708 
   14350   0.45678994    -1.381255  0.057995814  -0.86684987    1.4222041 
   14400   0.46002899   -1.3873292  0.054541872  -0.87314172    1.3136716 
   14450   0.43820705   -1.3682628  0.061224073  -0.86919687    1.4622797 
   14500   0.44012344   -1.3722545  0.064317288  -0.86818058    1.4919944 
   14550   0.44011802     -1.36294  0.064208649  -0.85898009    1.5301594 
   14600   0.45434584   -1.3834254  0.062532305  -0.86692583    1.3580353 
   14650   0.43444774   -1.3731685   0.06886362  -0.87021922    1.5131324 
   14700   0.43268119   -1.3557803  0.058566836   -0.8648928    1.5410668 
   14750   0.45228952   -1.3826913   0.06179545  -0.86898325    1.3985764 
   14800   0.45471979   -1.3804036  0.057751968  -0.86831076    1.3228097 
   14850    0.4468985    -1.363117  0.057570585  -0.85902037    1.5114371 
   14900   0.43740632   -1.3541612  0.054970155  -0.86214926    1.4261027 
   14950   0.45616543   -1.3845076  0.060989754  -0.86773252    1.3040292 
   15000   0.44849011   -1.3707844  0.058585748  -0.86408232    1.4237347 
   15050   0.44660184   -1.3721546  0.064607042  -0.86131793    1.3574126 
   15100   0.46794923    -1.388377  0.054996623  -0.86582112    1.3301056 
   15150   0.45214389   -1.3763098  0.059761457  -0.86478124    1.4283271 
   15200   0.44790936   -1.3675068  0.062624629  -0.85734604    1.4293631 
   15250   0.44749121   -1.3713343  0.055207622  -0.86900841    1.5113939 
   15300   0.44757077   -1.3684675  0.058713441  -0.86255624    1.4801427 
   15350   0.43560627    -1.363693  0.058037973   -0.8704118    1.5206638 
   15400   0.46762394   -1.3887743  0.057497949  -0.86404207    1.3460794 
   15450   0.44436886    -1.368132  0.065256353  -0.85887712    1.4129066 
   15500   0.44376135   -1.3783936  0.066991334  -0.86801069     1.516316 
   15550   0.45657276   -1.3775667   0.05330959  -0.86806486    1.4560532 
   15600   0.44762103   -1.3683353  0.054550435  -0.86653689    1.5275109 
   15650   0.45676136   -1.3685784  0.051265987  -0.86093167    1.4632828 
   15700         0.45   -1.3905847  0.055261155   -0.8856985    1.3051722 
   15750   0.43847927   -1.3823817  0.057537828  -0.88673004    1.3465247 
   15800   0.43326951   -1.3750197  0.060139789  -0.88197143     1.263617 
   15850   0.42750344    -1.379721  0.061485662  -0.89108812    1.3738665 
   15900   0.43838026   -1.3771206  0.053050368  -0.88605527    1.4406477 
   15950   0.44081531    -1.381923  0.055607064  -0.88586802    1.4205323 
   16000    0.4366962   -1.3776262  0.060858945  -0.88043497    1.3272458 
   16050   0.44414003   -1.3850546  0.056737085  -0.88454762    1.2331025 
   16100   0.43623864   -1.3781299  0.056326228  -0.88592853    1.3872905 
   16150   0.41310828   -1.3592054  0.060208455  -0.88623293    1.4533509 
   16200   0.43760882   -1.3789228   0.06191433  -0.87976434    1.2697861 
   16250   0.43709581    -1.384474  0.062240861  -0.88550159    1.3030925 
   16300         0.45   -1.3716494  0.063662461  -0.85836198    1.3974502 
   16350   0.44806701   -1.3665011  0.065540437  -0.85326701    1.4277187 
   16400    0.4500759   -1.3689438  0.057244269  -0.86199869    1.5051442 
   16450   0.44830079   -1.3627812  0.056045009  -0.85880902    1.5024783 
   16500   0.46137565   -1.3794135   0.05923822  -0.85918411     1.444192 
   16550   0.45788911   -1.3750909  0.059490918  -0.85809249    1.4290397 
   16600   0.44285731   -1.3586935   0.05869015  -0.85751504    1.5332309 
   16650   0.46341565   -1.3769815  0.055336155  -0.85861585    1.3720743 
   16700   0.44771595    -1.365043  0.065089417  -0.85261075    1.4193995 
   16750   0.45646659   -1.3768769  0.062558927  -0.85823172    1.3937989 
   16800   0.44367649   -1.3660427  0.058029148  -0.86470679    1.5450298 
   16850   0.44541047    -1.372002  0.059833521  -0.86712917    1.5171242 
   16900   0.44593601   -1.3564052  0.058008123  -0.85283268     1.521736 
   16950    0.4528421   -1.3695644  0.059196807  -0.85790285    1.4954566 
   17000    0.4472615   -1.3633011  0.053531264  -0.86288104    1.5314847 
   17050   0.45786685   -1.3740166  0.053965077  -0.86256622    1.4738386 
   17100   0.46662536   -1.3946752  0.062544039  -0.86589466    1.3168584 
   17150   0.45915354   -1.3809964  0.063373736  -0.85885171     1.447119 
   17200   0.45116134   -1.3707708  0.057647308  -0.86233816    1.5073228 
   17250   0.45483533   -1.3858959  0.062904917  -0.86853464    1.3199514 
   17300   0.45499965   -1.3847753    0.0677497  -0.86240515    1.3123143 
   17350    0.4596405   -1.3844111  0.060439886  -0.86471377    1.3352222 
   17400   0.44413275   -1.3734166  0.068219988  -0.86143397    1.4429077 
   17450   0.45327115   -1.3667179  0.058697739   -0.8551267     1.413206 
   17500   0.45263108   -1.3718975   0.05957478  -0.86006884    1.4377067 
   17550   0.46586145   -1.3778232  0.054845226  -0.85750471     1.375649 
   17600   0.46619197   -1.3949956  0.067529232  -0.86166287    1.3680674 
   17650   0.44628301   -1.3622367  0.058392357   -0.8579332    1.5920501 
   17700   0.44516286    -1.361133  0.053868945  -0.86247212    1.5287821 
   17750   0.45756954   -1.3819717  0.059061166  -0.86572228    1.3946969 
   17800   0.44588405   -1.3634073  0.058102823  -0.85979203     1.504255 
   17850   0.45512347   -1.3874141  0.059781699  -0.87288819    1.4599037 
   17900   0.44329594    -1.362485     0.059066  -0.86049247    1.4262504 
   17950   0.45962805   -1.3802588  0.060465193  -0.86054861    1.3699245 
   18000   0.44873273   -1.3775651   0.06334403  -0.86586227    1.4653835 
   18050   0.44973655   -1.3860169  0.063961452  -0.87269363    1.3248363 
   18100   0.44324173   -1.3661646  0.061539087  -0.86175316    1.4829965 
   18150   0.45440888   -1.3823709  0.060539454  -0.86780123    1.4277215 
   18200   0.44861349   -1.3780422   0.06940864  -0.86039396    1.4185815 
   18250   0.44981262   -1.3721854  0.069421596  -0.85332607    1.3527873 
   18300   0.44987143   -1.3749971  0.066204745  -0.85929585    1.3213723 
   18350   0.46071702   -1.3752619  0.055481787  -0.85944703    1.4543611 
   18400    0.4542291   -1.3801139  0.065171026  -0.86109231    1.3131201 
   18450   0.45541149   -1.3825318  0.068302375  -0.85919742    1.3543063 
   18500   0.43723903   -1.3693698  0.064269181  -0.86822592     1.432724 
   18550    0.4460277   -1.3660077   0.06101423  -0.85933743    1.5665846 
   18600   0.45930962    -1.378633  0.062036104  -0.85767005    1.3473728 
   18650   0.44806102   -1.3601354  0.056814493  -0.85563325    1.5276716 
   18700   0.45558807   -1.3735956  0.051827658  -0.86655951    1.4155733 
   18750   0.44619335   -1.3680323  0.059776144  -0.86243463    1.4472699 
   18800   0.44602298   -1.3751423  0.062906492  -0.86658449    1.4117874 
   18850   0.45269755   -1.3778279   0.06226387  -0.86324377    1.4015022 
   18900   0.44572977   -1.3657466  0.050583531  -0.86980469     1.532906 
   18950   0.46036452   -1.3791491  0.055338299   -0.8638299     1.443928 
   19000   0.46094896   -1.3837706  0.056982455  -0.86622329    1.3214739 
   19050    0.4526201   -1.3751908  0.060768467  -0.86217941    1.3988797 
   19100   0.45925228   -1.3852658  0.064206052  -0.86219015    1.2997217 
   19150   0.45507286   -1.3800496  0.060419325  -0.86493663    1.3634153 
   19200   0.43821622    -1.361864  0.064493123  -0.85951985    1.5122747 
   19250   0.45053655   -1.3708812  0.057574944  -0.86314512    1.4491945 
   19300   0.45007261   -1.3762048  0.060939664  -0.86556757    1.3123981 
   19350   0.44058753   -1.3732276  0.069401072  -0.86360617    1.3761749 
   19400   0.45140382   -1.3869347  0.068689805  -0.86721725    1.4379254 
   19450   0.45147675   -1.3836924  0.067805519  -0.86478639    1.3677275 
   19500   0.43770948    -1.357656    0.0599126  -0.86039863    1.5481493 
   19550   0.45188074   -1.3778534  0.059896121  -0.86645314    1.3390308 
   19600   0.44310292   -1.3676535   0.05987271  -0.86504715    1.4590513 
   19650   0.46863528    -1.383811  0.055307493  -0.86025877    1.3640273 
   19700   0.45630125   -1.3709403  0.054338533  -0.86068081    1.4319541 
   19750   0.43499184   -1.3689144  0.062300651   -0.8719844    1.4893534 
   19800   0.44781614   -1.3675453  0.056801967  -0.86330037     1.434818 
   19850   0.44397874   -1.3620892  0.059495977  -0.85898451     1.407868 
   19900   0.43403521   -1.3685374  0.067799018  -0.86706489    1.4785701 
   19950   0.44572431   -1.3645857  0.058234135  -0.86099869    1.4609655 
   20000   0.44646244   -1.3745395  0.059596937   -0.8688522    1.3892298 
   20050   0.45231317   -1.3729026  0.056566507  -0.86439981    1.3487888 
   20100   0.45327889   -1.3748713  0.058843419   -0.8631267    1.3206671 
   20150   0.45514357    -1.370347  0.057488564  -0.85809411    1.3474565 
   20200   0.44979339   -1.3689967  0.055116712  -0.86446139    1.5119354 
   20250   0.44865769   -1.3844549  0.063615716  -0.87255536    1.3658114 
   20300   0.46169061   -1.3796287  0.058875149  -0.85944765     1.385101 
   20350   0.46748938   -1.3846945  0.057888363  -0.85970632    1.3429946 
   20400   0.45509023    -1.375567  0.057488725  -0.86336724    1.4265924 
   20450   0.46674245   -1.3885768  0.058184569  -0.86403877    1.3714934 
   20500   0.45776403   -1.3780779  0.056324069  -0.86437128     1.389437 
   20550   0.46403305   -1.3819475  0.058088267  -0.86021292    1.3624953 
   20600   0.45397102    -1.380838  0.066800485  -0.86044477    1.3415894 
   20650   0.45493502   -1.3824059  0.063557028  -0.86429297     1.321848 
   20700   0.46032417   -1.3810043  0.058511594   -0.8625521    1.4536853 
   20750   0.45381913   -1.3748877  0.056500143  -0.86494663    1.4638771 
   20800   0.45264181   -1.3714478  0.059642639  -0.85954052    1.4503531 
   20850   0.44995074   -1.3833282  0.064336611  -0.86941579    1.4861276 
   20900   0.45477736   -1.3895086   0.06511624  -0.86999396    1.3564403 
   20950   0.44587084   -1.3646347  0.052448433  -0.86668695    1.4747872 
   21000   0.44045761   -1.3736604  0.069106435  -0.86446343    1.5142601 
   21050   0.45423138   -1.3755205   0.05599631  -0.86567129    1.5001861 
   21100   0.45640648   -1.3839526  0.063835739  -0.86409077     1.369111 
   21150   0.47192608   -1.3897068  0.056049801  -0.86212423    1.3318132 
   21200   0.45140564   -1.3657378  0.059518477  -0.85518982    1.5233221 
   21250   0.46447255   -1.3791954  0.057217688  -0.85789225    1.4033537 
   21300   0.46115304   -1.3791771  0.065667381  -0.85274096    1.4195389 
   21350   0.45919068   -1.3772638  0.059145844  -0.85930994    1.4855186 
   21400   0.45228932   -1.3671291  0.063881887   -0.8513348    1.5759267 
   21450   0.46486121   -1.3804208  0.059179535  -0.85676747    1.3947205 
   21500   0.45639441   -1.3709313  0.064307553  -0.85060971    1.5148219 
   21550   0.45294436   -1.3690809  0.059967316  -0.85654667     1.456948 
   21600   0.45850095   -1.3861006   0.06335346  -0.86462829    1.4212398 
   21650   0.45202761   -1.3739529  0.058294419   -0.8640076    1.4876223 
   21700   0.45225889   -1.3725927  0.059171373  -0.86153931    1.5250316 
   21750   0.46467407   -1.3876591  0.061799602  -0.86157265    1.3643809 
   21800   0.45772386   -1.3841379  0.069330631  -0.85746486    1.3943441 
   21850   0.46861411   -1.3946154  0.060217842  -0.86617397    1.2747688 
   21900   0.46249608    -1.388159   0.06429299  -0.86175537    1.3906723 
   21950   0.45342229   -1.3754675   0.06698408  -0.85543897    1.3797406 
   22000   0.44523772   -1.3748279   0.06484293  -0.86511832    1.4749285 
   22050   0.44502216   -1.3624297  0.058231546  -0.85954688    1.6139078 
   22100   0.46434154   -1.3687685  0.054563804  -0.85025009    1.4341199 
   22150   0.43714338   -1.3513688  0.061574142  -0.85301561    1.5866296 
   22200   0.44826576   -1.3599047  0.059065293  -0.85294719    1.5178933 
   22250   0.45038489   -1.3649189  0.062300351    -0.852609    1.4491031 
   22300   0.46134655   -1.3793427  0.058779678  -0.85960098     1.366101 
   22350   0.45060523   -1.3713937  0.060044683  -0.86111934    1.4616922 
   22400   0.45725247   -1.3832608  0.065978189  -0.86041123    1.3750388 
   22450   0.45935035   -1.3815117  0.063255742  -0.85928843    1.3989153 
   22500   0.45916146   -1.3867944  0.066389337  -0.86162627     1.389084 
   22550   0.46400246   -1.3837311  0.056248211  -0.86386711    1.4155175 
   22600   0.44898625   -1.3713616  0.061062949  -0.86168661    1.4779562 
   22650   0.44241233   -1.3685701  0.062714049  -0.86381244    1.4410165 
   22700   0.44929619   -1.3599035  0.053590908  -0.85739085    1.5353718 
   22750   0.43363055     -1.35925  0.065782263  -0.86019856    1.5592847 
   22800   0.45046486   -1.3669978  0.059432168  -0.85747613    1.4530381 
   22850   0.44573834   -1.3650846  0.064345282  -0.85537246     1.411712 
   22900   0.45687228   -1.3704209  0.058980291  -0.85494902    1.3860751 
   22950   0.44492224   -1.3677132  0.060268329  -0.86289335    1.4817282 
   23000   0.45640977   -1.3760592  0.056415147  -0.86361465    1.4097165 
   23050   0.45402724   -1.3709643  0.057184829  -0.86013057    1.4326067 
   23100   0.44517473    -1.374068   0.06624353  -0.86302072    1.4408446 
   23150   0.44914241   -1.3700859  0.061384482  -0.85993329    1.3682766 
   23200   0.44884322    -1.369408  0.062917185  -0.85802166    1.3655303 
   23250   0.44962982   -1.3705601  0.059662023   -0.8616429    1.3671014 
   23300   0.44942878   -1.3658913  0.057657024  -0.85917999    1.4038368 
   23350   0.45538867   -1.3972186  0.071182645  -0.87102681    1.2383672 
   23400    0.4624641    -1.392449  0.068308577  -0.86206173    1.2671301 
   23450   0.43453132   -1.3697448  0.068152826  -0.86742274    1.3828382 
   23500   0.45971439   -1.3768257  0.059369569  -0.85812481    1.4132795 
   23550   0.46728191   -1.3877361  0.063525935  -0.85731764     1.386195 
   23600   0.45144824   -1.3682707  0.058830667  -0.85836802    1.5194591 
   23650   0.45937421   -1.3825634  0.058832602  -0.86473943    1.4536453 
   23700   0.44447816   -1.3698353  0.056208682  -0.86951883    1.4816206 
   23750   0.44386492    -1.367553  0.059070927  -0.86498704    1.4560378 
   23800   0.45334078   -1.3663866  0.051420142  -0.86200351    1.4353192 
   23850     0.451783   -1.3850681  0.070435222  -0.86322641    1.3301793 
   23900   0.44826281   -1.3752506  0.060288031  -0.86707327    1.3724045 
   23950   0.44672058   -1.3644844  0.055911006  -0.86222506    1.4981563 
   24000   0.45482768   -1.3689778  0.056714725  -0.85781446    1.4007876 
   24050   0.44626825   -1.3702975  0.062316687  -0.86208442    1.4135747 
   24100   0.45667275   -1.3792603  0.057954368  -0.86501378    1.3953299 
   24150   0.46175559   -1.3923227  0.059676554  -0.87127532     1.258888 
   24200      0.46283   -1.3825962  0.060902317  -0.85924954    1.3005571 
   24250   0.45432494    -1.370201  0.055496273  -0.86075841    1.3756126 
   24300   0.46051483   -1.3844053  0.063767037  -0.86050721    1.3539948 
   24350    0.4551009   -1.3844928   0.05986796  -0.86990317    1.3968499 
   24400   0.45759965   -1.3867183  0.059550843  -0.86994918    1.4234598 
   24450   0.45392924   -1.3752541  0.061690682  -0.86001241    1.4895243 
   24500   0.45983955   -1.3845374  0.062919155  -0.86216187    1.3308131 
   24550   0.45035942   -1.3889957  0.073737675  -0.86527392     1.450175 
   24600   0.45453319   -1.3898509  0.062652506  -0.87304394     1.356197 
   24650   0.45510148   -1.3808004  0.057965701  -0.86811247    1.4185896 
   24700   0.45971983   -1.3871611   0.06627326  -0.86155116    1.3915294 
   24750   0.45526528   -1.3875358  0.064369343  -0.86828055    1.3567527 
   24800   0.45490526   -1.3862395  0.063861307  -0.86785203    1.4463862 
   24850    0.4515612   -1.3909233  0.070088043  -0.86965034    1.3820324 
   24900   0.44328029   -1.3816846   0.06970853  -0.86906513    1.3810626 
   24950   0.44213761   -1.3724817   0.06751816  -0.86319441    1.4779482 
   25000   0.45505144    -1.385839  0.065369519  -0.86579726    1.3644237 
   25050   0.43900095   -1.3758709  0.068273711   -0.8689621     1.434738 
   25100   0.45793336    -1.392971  0.066091452   -0.8693278    1.3415091 
   25150   0.45378779   -1.3889442  0.066358974  -0.86917559    1.3688916 
   25200   0.46243894   -1.3947181  0.064568948  -0.86809558    1.3188515 
   25250   0.44563928   -1.3678273  0.057433307  -0.86512611    1.5495059 
   25300   0.44183571   -1.3805313  0.064265193   -0.8747986    1.4521489 
   25350   0.46431004   -1.3875792  0.055814581   -0.8678415    1.3210343 
   25400   0.46545031   -1.3876672  0.062360841  -0.86024388    1.3229391 
   25450   0.45386915   -1.3784223  0.064537141  -0.86039425    1.4132312 
   25500   0.45662311   -1.3724303  0.057247848  -0.85893991    1.4129428 
   25550   0.45152848   -1.3681765  0.057074571  -0.85994969    1.5412513 
   25600   0.44513963   -1.3666813  0.061910025  -0.86000255    1.5782242 
   25650   0.44987009   -1.3716767  0.057926279  -0.86425519    1.5067617 
   25700         0.45   -1.3893032   0.05273286  -0.88694537    1.3356912 
   25750   0.43512899   -1.3863126   0.06188452  -0.88966174    1.2904978 
   25800   0.45138489   -1.3898933  0.055256991  -0.88362755    1.2469424 
   25850   0.44084018   -1.3858796  0.059811134  -0.88559566    1.3196344 
   25900   0.43440582   -1.3794229  0.058580734  -0.88679835    1.3950904 
   25950   0.43329856   -1.3855194  0.066505036  -0.88607687    1.3268048 
   26000    0.4423668   -1.3846293  0.055477607  -0.88715356    1.4026021 
   26050   0.43391933   -1.3939299  0.074807044  -0.88556512    1.2593043 
   26100   0.45519175   -1.3949121  0.059780886  -0.88031876    1.3703397 
   26150   0.44220803   -1.3948695  0.061628607  -0.89140135    1.3249234 
   26200   0.44605298   -1.3911118  0.060074293  -0.88535628    1.2567317 
   26250   0.44691471    -1.393063  0.063361827  -0.88315894    1.3140168 
   26300    0.4367418   -1.3811259  0.067692352  -0.87705565    1.3592627 
   26350   0.44080961   -1.3753925  0.054199543   -0.8807507    1.4079302 
   26400   0.44874341   -1.3996922  0.062434842   -0.8888879    1.2732037 
   26450   0.42975788   -1.3778704  0.061253972   -0.8872167    1.4805294 
   26500   0.46007136   -1.3961577  0.051585731  -0.88488396    1.2779281 
   26550   0.44298384   -1.3975179  0.068066786  -0.88683639    1.3054179 
   26600   0.44795289   -1.4044724  0.062498559  -0.89439422    1.2800189 
   26650   0.44661753   -1.3900504  0.059859153  -0.88394586     1.267282 
   26700   0.44171248   -1.3885533  0.062772872  -0.88443605    1.2673564 
   26750   0.43827434   -1.3769357   0.05631796  -0.88270862    1.2427491 
   26800   0.43780279   -1.3933377  0.068507863  -0.88739184    1.2822552 
   26850   0.43083181   -1.3760263  0.053183212  -0.89237032    1.4722001 
   26900   0.44238803   -1.3905272  0.058419315  -0.89008852    1.3242932 
   26950   0.44977417   -1.3973122  0.060304664  -0.88760822    1.2204802 
   27000   0.44966649   -1.3933618  0.060969825  -0.88310017    1.2210122 
   27050   0.43203597   -1.3884032   0.06399747  -0.89272983    1.2258696 
   27100         0.45   -1.3720703  0.066118147  -0.85632717    1.3558515 
   27150   0.45407916   -1.3631817  0.062247533  -0.84723343    1.4557268 
   27200   0.46829301   -1.3843978  0.068889306  -0.84760573    1.2964094 
   27250    0.4616873   -1.3798053  0.066874329  -0.85162837    1.3853703 
   27300    0.4624959   -1.3687881  0.057919532  -0.84875804    1.5598622 
   27350   0.45467232   -1.3621687  0.055290405  -0.85258485    1.5428695 
   27400   0.46604718   -1.3708138  0.054248815  -0.85090619     1.486146 
   27450   0.46421039   -1.3721023  0.053554786    -0.854724    1.5177971 
   27500   0.46985746    -1.391812  0.064348636  -0.85799748    1.4263367 
   27550   0.46612972   -1.3803773  0.055647301  -0.85898871    1.3396619 
   27600   0.46555375   -1.3831092  0.059949897  -0.85799352    1.4176431 
   27650   0.45634378   -1.3725704  0.061623434  -0.85498346    1.4594639 
   27700   0.45241038   -1.3633312   0.05734326  -0.85395456    1.5560202 
   27750   0.45425069   -1.3737625  0.064132088   -0.8557583    1.5535206 
   27800   0.45834197   -1.3697855   0.05834469  -0.85348074    1.4432694 
   27850   0.44982712   -1.3684447  0.058520249  -0.86047219    1.4829323 
   27900   0.46170306   -1.3807906  0.060568118   -0.8589042    1.4184369 
   27950   0.46073909   -1.3748927  0.059146871  -0.85539072    1.3935301 
   28000   0.45207332   -1.3735225  0.064436253  -0.85738964    1.4827333 
   28050   0.45239747   -1.3701972  0.063434338  -0.85474244    1.4742373 
   28100   0.45962012   -1.3912379  0.063744393  -0.86825636    1.3496163 
   28150   0.45894409   -1.3876286  0.063759182  -0.86530775    1.3609716 
   28200   0.45734568   -1.3820575  0.063712803  -0.86138009    1.4100714 
   28250   0.46279164   -1.3836425   0.05958456  -0.86165197    1.3806699 
   28300   0.45762093   -1.3692185  0.055329575  -0.85664939    1.4794396 
   28350   0.46389345   -1.3718099  0.055356845  -0.85294616    1.5222004 
   28400   0.46003679   -1.3728913  0.056954898  -0.85628299    1.4971333 
   28450   0.45222288    -1.367997  0.059458635  -0.85669232     1.560435 
   28500   0.46666249    -1.380368  0.051135202  -0.86295916    1.4302318 
   28550   0.45971385   -1.3727327  0.052357311  -0.86104467    1.4602635 
   28600         0.45    -1.385353  0.057457894  -0.87827012    1.3398701 
   28650   0.44852429   -1.3924852  0.059014869  -0.88531979     1.338195 
   28700   0.45099135   -1.3932141  0.059284648  -0.88331389    1.2573691 
   28750   0.46642679   -1.3891638   0.04684087  -0.87628484    1.2931452 
   28800    0.4409523   -1.3832744  0.062827993  -0.87986153    1.4138481 
   28850   0.45369105   -1.3906038  0.057634302  -0.87965654    1.2873362 
   28900   0.45100128   -1.3877338  0.055855701  -0.88125262    1.4121939 
   28950   0.44104029   -1.3695366  0.055355575  -0.87350832    1.5273106 
   29000   0.45855319    -1.383941  0.055636247  -0.87013365     1.303134 
   29050    0.4475291   -1.3819967  0.056579915  -0.87826067    1.4125308 
   29100   0.45517834   -1.3916345  0.059788084  -0.87704743     1.351002 
   29150   0.45425638   -1.3901558  0.060432432   -0.8758455    1.3957809 
   29200   0.45506275   -1.3910602  0.055467176  -0.88090951    1.3716843 
   29250   0.45520172   -1.3883253  0.056200409  -0.87730246    1.3899603 
   29300   0.45250521   -1.3876169  0.054727941  -0.88076089     1.370121 
   29350   0.46535003   -1.4010825  0.057514693  -0.87860554    1.2841294 
   29400    0.4465139   -1.3927405  0.060318892  -0.88627982    1.3796637 
   29450   0.42889926   -1.3832662  0.069703026  -0.88502128    1.4880781 
   29500         0.45   -1.3569279  0.054532929  -0.85276998    1.5785435 
   29550     0.463462   -1.3776574  0.065983932  -0.84859774    1.3503819 
   29600   0.46192823   -1.3726621   0.05403733  -0.85708145    1.4917761 
   29650   0.45410088   -1.3657038  0.053097665  -0.85888368    1.5610167 
   29700    0.4595241   -1.3650136  0.056151976  -0.84972048    1.5373749 
   29750   0.45668497    -1.367368  0.058639183  -0.85242442     1.432476 
   29800   0.45701084   -1.3643671  0.060839264  -0.84689786    1.5122443 
   29850   0.46328303   -1.3807233  0.055370161  -0.86245621    1.5418083 
   29900   0.45672801   -1.3770547  0.067220146  -0.85348718    1.4517457 
   29950   0.44225903   -1.3669723  0.062724387   -0.8623574    1.6416358 
   30000   0.46567545   -1.3785234  0.056003122  -0.85723284    1.4413543 
   30050   0.46925539   -1.3792771  0.055785416  -0.85462735    1.4653119 
   30100   0.44606718   -1.3708703  0.066597088   -0.8585778    1.6158066 
   30150   0.47037455   -1.3800644  0.055929157  -0.85415265     1.450419 
   30200   0.46437031   -1.3776317  0.059603031   -0.8540453    1.4417642 
   30250   0.44702417   -1.3604875  0.053480386  -0.86035548    1.5267575 
   30300   0.45436869   -1.3694455  0.057784622  -0.85767084    1.5560073 
   30350   0.46026083    -1.379668  0.066676353  -0.85311436    1.4931021 
   30400   0.46350718   -1.3852326  0.068984563  -0.85312713    1.3977752 
   30450   0.47485013   -1.3865424   0.06151263  -0.85057531    1.4111809 
   30500   0.45491465    -1.377493  0.069084822  -0.85387259    1.5314104 
   30550   0.46365827   -1.3685731  0.057755376  -0.84754588    1.4852543 
   30600   0.44575437   -1.3532781  0.056795413   -0.8510998    1.6335846 
   30650   0.48695301   -1.3882989  0.053548333   -0.8482034    1.3374737 
   30700         0.45   -1.3781204   0.05985772  -0.86863771    1.3898068 
   30750   0.46056775   -1.3860012  0.057742614  -0.86807463    1.2634397 
   30800         0.45    -1.390481  0.053975439  -0.88688061    1.2766144 
   30850   0.43493565   -1.3775573  0.056911858  -0.88607222    1.3982277 
   30900   0.43258278    -1.390622  0.063288714  -0.89511102    1.2802063 
   30950   0.43244974   -1.3751238  0.056330108   -0.8867043    1.4532481 
   31000    0.4493586   -1.3941431  0.058668019  -0.88649092     1.248637 
   31050   0.43656669   -1.3768856  0.056638927  -0.88404376    1.3162415 
   31100   0.44698701   -1.3912285  0.057312289  -0.88730174    1.2525734 
   31150   0.43259307   -1.3823741  0.054861932  -0.89527961    1.4027745 
   31200   0.44388125   -1.3967315  0.061130482  -0.89208971    1.2399924 
   31250   0.43748655   -1.3865037  0.059934638  -0.88944712    1.2960298 
   31300   0.44505119   -1.3877051  0.053326215  -0.88969858    1.3050048 
   31350    0.4455977   -1.3911351  0.054016722  -0.89189203    1.2629908 
   31400   0.44936982   -1.3979696   0.05388191  -0.89509234    1.3094192 
   31450   0.42839424   -1.3828846  0.065244761  -0.88960262    1.3627063 
   31500   0.44443078   -1.3905182  0.054685947  -0.89177181    1.2628143 
   31550   0.43826715   -1.3799207   0.05202863  -0.88999013    1.3245033 
   31600   0.44261275   -1.3814921  0.054845543  -0.88440263    1.2809767 
   31650   0.43065898   -1.3871755  0.062324305   -0.8945511    1.2916984 
   31700   0.44374687   -1.3841833  0.058312709   -0.8824935    1.2398574 
   31750   0.42581724   -1.3745608  0.052764094  -0.89633428    1.4140129 
   31800         0.45   -1.3841784  0.062621847   -0.8719316    1.2743503 
   31850   0.43943023   -1.3740005  0.057862858  -0.87707359    1.4545211 
   31900    0.4507573   -1.3803328  0.058156429  -0.87179465     1.326442 
   31950   0.45644476   -1.3897259  0.061499729  -0.87216176    1.2920316 
   32000   0.45021178   -1.3694357  0.057368843  -0.86223021    1.3594519 
   32050   0.43219203   -1.3578825  0.057240316  -0.86881027    1.5320129 
   32100   0.44604678   -1.3803813  0.058580775  -0.87612548    1.4246721 
   32150   0.45203548    -1.382807  0.062314925  -0.86883328     1.323236 
   32200   0.44757703   -1.3752138  0.054766953  -0.87324276    1.3924568 
   32250   0.45860592   -1.3834486  0.058050808    -0.867174    1.3748747 
   32300         0.45   -1.4025255  0.053650947  -0.89924956    1.1546135 
   32350   0.42919807   -1.3850244  0.057243063  -0.89894096    1.2643967 
   32400   0.44677716   -1.4078612  0.052481988  -0.90897432    1.3464618 
   32450   0.42256623    -1.391765  0.064228434   -0.9053225     1.283585 
   32500   0.44046586   -1.4080348  0.061491181  -0.90644483    1.2186794 
   32550   0.43645109   -1.4017596  0.060909693  -0.90476258    1.2803115 
   32600   0.44646044   -1.4049695  0.058926527  -0.89995456    1.2095295 
   32650   0.43195745   -1.3923373  0.058497856  -0.90224196    1.2915531 
   32700   0.43306682   -1.3854941  0.060465202  -0.89232295    1.2429991 
   32750   0.42116034   -1.3738094  0.059080889  -0.89391918    1.3744966 
   32800         0.45   -1.3737373  0.056975765  -0.86713653    1.3957332 
   32850    0.4538164   -1.3811639  0.059080569  -0.86864515    1.4374275 
   32900   0.45998683    -1.399953  0.066224118  -0.87412537    1.2745209 
   32950   0.44797423   -1.3912788  0.071065259  -0.87261267    1.2970161 
   33000   0.44811612   -1.3832034  0.056383655  -0.87907701    1.3696722 
   33050    0.4537834   -1.3824282  0.059430129  -0.86959285    1.3649422 
   33100    0.4471182   -1.3845088  0.063851004  -0.87391218    1.4068644 
   33150   0.44797015   -1.3859189  0.062727868   -0.8755942    1.2910357 
   33200   0.44802487   -1.3790349   0.05765347  -0.87372994    1.4129479 
   33250   0.44629425   -1.3880275  0.063035919  -0.87906923    1.3457271 
   33300   0.44844093   -1.3834703  0.059817129  -0.87558598    1.3413434 
   33350   0.44512312   -1.3735055  0.063998301  -0.86475501    1.3510213 
   33400   0.45602874   -1.3851856   0.06048403  -0.86905285    1.2977765 
   33450   0.44652529   -1.3742403  0.059402533  -0.86868462    1.3613431 
   33500   0.44546095   -1.3857033  0.063250969   -0.8773626    1.4142611 
   33550   0.44726408   -1.3765297  0.059073718  -0.87056462    1.3572796 
   33600   0.45123953    -1.381712  0.056091344  -0.87475712    1.2881488 
   33650   0.46165466   -1.3834043  0.056058063  -0.86607624    1.3106772 
   33700   0.44958868   -1.3773702  0.061503335  -0.86665282     1.287828 
   33750   0.44041774   -1.3792584  0.060067172  -0.87914047    1.3666657 
   33800   0.44739467   -1.3906146  0.061268559  -0.88232416    1.3439946 
   33850   0.45832655   -1.3917788  0.057307645   -0.8765265    1.3449226 
   33900   0.44784049   -1.3843209  0.063362922  -0.87349071    1.3193896 
   33950   0.43619382    -1.378656  0.072506409  -0.87031922    1.4245904 
   34000   0.44810115   -1.3801919  0.061349545  -0.87111465    1.4340225 
   34050    0.4462559   -1.3774605   0.06408605  -0.86749048    1.3287301 
   34100   0.45878016   -1.3821513  0.052757912  -0.87099555    1.3678846 
   34150   0.43795613   -1.3694878  0.063799877  -0.86809675    1.4780888 
   34200   0.46169442   -1.3832583   0.05599234  -0.86595628    1.2785513 
   34250   0.45030038    -1.381236  0.060800289  -0.87051059    1.3314613 
   34300    0.4468939   -1.3821302  0.066827826  -0.86878088    1.2722009 
   34350    0.4441144   -1.3776286  0.061403972  -0.87248031    1.3015959 
   34400   0.45075202   -1.3952016  0.070304246  -0.87452096    1.1783254 
   34450     0.449836    -1.385114  0.062767391  -0.87288545    1.2465195 
   34500   0.44521367   -1.3779173  0.060864124  -0.87221056    1.3355122 
   34550   0.44312469      -1.3815  0.065273408  -0.87347114    1.3771651 
   34600    0.4402521   -1.3643969   0.05587758  -0.86863414     1.533441 
   34650   0.45592996   -1.3737186  0.046367396  -0.87180121    1.4668194 
   34700   0.44969773   -1.3694113  0.058830705   -0.8612576    1.3597778 
   34750   0.45380955   -1.3692576  0.053079303  -0.86274694    1.4356171 
   34800    0.4475349   -1.3701196  0.054789542  -0.86816811    1.4875967 
   34850   0.44702537   -1.3847554  0.066546503    -0.871556    1.4369378 
   34900   0.44809439   -1.3786103  0.057116136  -0.87377318    1.5713673 
   34950   0.45566341   -1.3880152  0.065317064  -0.86741444    1.3739666 
   35000   0.44614599   -1.3747187  0.059062752  -0.86988178    1.4185382 
   35050   0.45733589   -1.3852994  0.056724413  -0.87162018    1.4069877 
   35100   0.45676917    -1.383237  0.060739359  -0.86610907    1.3823966 
   35150   0.43894887   -1.3701469  0.054794912  -0.87676893    1.4548687 
   35200         0.45   -1.3913986  0.058239561  -0.88353401    1.2621259 
   35250   0.43627126   -1.3739996  0.057835595  -0.88025634    1.3730467 
   35300   0.44047628    -1.390185  0.054357186  -0.89571858    1.3387118 
   35350    0.4460004   -1.3938622  0.058690056  -0.88954346     1.370223 
   35400   0.44368525   -1.3907671  0.057286852  -0.89016472    1.3613142 
   35450   0.44822751   -1.3970899  0.057849819  -0.89138612    1.3885972 
   35500   0.43818489   -1.3878432  0.063458813  -0.88656465     1.353755 
   35550   0.44787651   -1.4079473  0.069566203  -0.89087787    1.2814918 
   35600   0.43733498    -1.387071  0.061805563  -0.88829489    1.3796158 
   35650   0.45846533   -1.4074577  0.060062367  -0.88931201    1.2183984 
   35700   0.43801261   -1.3881336  0.060788937  -0.88969707    1.4194381 
   35750   0.43707241   -1.3881432  0.056525843  -0.89490921      1.36798 
   35800   0.44377543   -1.3917498  0.059826744  -0.88851749    1.2980103 
   35850   0.43933332   -1.3815209  0.055864446  -0.88668928    1.4062572 
   35900         0.45   -1.3718788  0.060307309  -0.86194652    1.4596513 
   35950   0.45523547   -1.3930403  0.067672779  -0.87051146    1.2848873 
   36000   0.45612264   -1.3796144  0.063131815  -0.86074003    1.3758099 
   36050   0.45989124   -1.3868563   0.06001616  -0.86733209    1.3069767 
   36100         0.45   -1.3895973  0.060939975  -0.87903237    1.2325878 
   36150   0.44407286   -1.3830564  0.059729902  -0.87962367    1.2344102 
   36200   0.44869565   -1.3915557  0.061074789  -0.88215921     1.228896 
   36250   0.44619813   -1.3915196  0.057460502  -0.88823275    1.2692524 
   36300   0.44365075    -1.396863  0.066295074   -0.8872869    1.1925942 
   36350   0.44053103   -1.3965965  0.065772599  -0.89066001    1.2460551 
   36400   0.45907184   -1.4021094  0.056164016  -0.88725609    1.2526708 
   36450   0.44019627   -1.3891994  0.062707087  -0.88666285    1.3820151 
   36500   0.45600595   -1.3965412  0.051791982  -0.88912332    1.2748167 
   36550   0.45658318    -1.390511  0.049851716  -0.88445656    1.3167744 
   36600   0.43248865   -1.3851931  0.067094879  -0.88596994    1.3544304 
   36650   0.43702187   -1.3861228  0.064120717  -0.88534436    1.2284045 
   36700   0.43454716   -1.3810419  0.063771997  -0.88308485    1.3471063 
   36750   0.45595794   -1.4046463  0.060989041  -0.88807925    1.2291741 
   36800   0.43356087   -1.3797394  0.059067462  -0.88747232     1.265644 
   36850   0.44842196   -1.3889303  0.058856899  -0.88202511    1.1921129 
   36900   0.43692988   -1.3801382   0.05747784  -0.88609459    1.2983986 
   36950   0.45209453   -1.3970558  0.061815501  -0.88352253    1.3199526 
   37000   0.45042017   -1.3919341  0.053861513  -0.88802776    1.2703383 
   37050   0.44781722   -1.3997262  0.060482091  -0.89180004    1.3083097 
   37100   0.43835982   -1.3886797  0.060204307   -0.8904809    1.3705022 
   37150   0.44243619   -1.3906369  0.058080991  -0.89048846    1.2626113 
   37200    0.4526597   -1.3985844  0.056778445  -0.88952345    1.1564783 
   37250   0.45132135   -1.3895381  0.048675961  -0.88991686    1.2526308 
   37300   0.44171707   -1.3832484  0.053544034  -0.88835544    1.3769391 
   37350   0.44033389   -1.3883269  0.063127268  -0.88523274     1.314374 
   37400   0.44660734   -1.3869518  0.055148876  -0.88556772    1.3441256 
   37450   0.45057531   -1.3927785  0.055685417  -0.88689326    1.3218052 
   37500   0.44877831   -1.3835742  0.049520131  -0.88564972    1.3237274 
   37550   0.44641383   -1.3914198  0.058360934  -0.88701705    1.3016691 
   37600   0.43378376   -1.3785614  0.061378734  -0.88376039    1.4038562 
   37650   0.44904988   -1.3895737  0.058491332  -0.88240672     1.278729 
   37700   0.44385498    -1.390674  0.062089233  -0.88509963    1.3149059 
   37750   0.44433458   -1.3829029  0.051584506  -0.88735412    1.3840951 
   37800   0.43422066   -1.3857114  0.060186374  -0.89166619    1.3922081 
   37850   0.44336298   -1.3887454  0.052263852  -0.89348807    1.3627272 
   37900   0.44437201   -1.3976748  0.062890822  -0.89078227    1.2819039 
   37950   0.44554286   -1.3863975  0.055931987  -0.88529395    1.3867314 
   38000         0.45    -1.374517  0.056795147  -0.86809689    1.4680079 
   38050   0.45826494   -1.3732167  0.048889031  -0.86644463    1.4774654 
   38100   0.46083863    -1.380618  0.058814792   -0.8613486    1.3590588 
   38150    0.4553097   -1.3768591  0.054615163  -0.86731365    1.4160646 
   38200   0.45184892   -1.3799262  0.053183731  -0.87527009    1.4669818 
   38250   0.44562422    -1.389394   0.06582541  -0.87831575    1.3963041 
   38300     0.453031   -1.3758238  0.064354573  -0.85881577    1.3266968 
   38350   0.45438919   -1.3835258  0.063883122  -0.86563219    1.3095132 
   38400   0.45517678   -1.3901214  0.065471417  -0.86985247    1.1903806 
   38450     0.448593     -1.38211  0.069930008  -0.86396079    1.3089107 
   38500   0.45631153   -1.3895997  0.067431018  -0.86623744     1.304363 
   38550     0.466692   -1.3942013  0.058428089  -0.86947015     1.285029 
   38600   0.45302087   -1.3745534  0.054343308  -0.86756678     1.475191 
   38650   0.46235956    -1.397664  0.066309776  -0.86937994    1.2516044 
   38700   0.45047964   -1.3737467  0.060877419  -0.86276504    1.3632907 
   38750   0.44508048   -1.3688821  0.059784386   -0.8643881    1.4960348 
   38800         0.45   -1.3939995  0.055018554  -0.88935599    1.2119425 
   38850   0.43486084   -1.3770891  0.049768117  -0.89282252    1.3305766 
   38900   0.43967746   -1.3961823  0.059201448  -0.89766981     1.307862 
   38950   0.44713666   -1.3925791   0.05823528  -0.88757974    1.3369314 
   39000   0.43594328   -1.3785527  0.048434083  -0.89453861    1.3989438 
   39050   0.43155785   -1.3827617  0.060255775  -0.89130772    1.3156888 
   39100   0.43770395   -1.3896447  0.057153322  -0.89515218    1.3626067 
   39150   0.44244948   -1.4011903   0.06309568   -0.8960138    1.3074373 
   39200   0.43730555   -1.3902707  0.054962608  -0.89836692    1.3549758 
   39250   0.44920585   -1.3996593  0.049437736  -0.90139008     1.362547 
   39300   0.44096916   -1.3857746  0.051222457  -0.89395047    1.3960525 
   39350   0.43733026   -1.3891348  0.060957625  -0.89121139    1.2893755 
   39400    0.4316522   -1.3910426  0.062743407  -0.89700673    1.3370098 
   39450   0.44261541   -1.3941599  0.059323812  -0.89258948    1.3410967 
   39500    0.4392939   -1.3872771  0.057591509  -0.89075774    1.3673226 
   39550   0.43782297   -1.3921198  0.051383597  -0.90327811    1.3435528 
   39600   0.45166576   -1.3895032  0.048889446  -0.88932437    1.3160818 
   39650    0.4318678   -1.3846139  0.057895326  -0.89521065    1.3493435 
   39700   0.45105615   -1.3999217  0.052504658  -0.89673677    1.2290767 
   39750    0.4339458   -1.3967884  0.068424795  -0.89477941    1.1659574 
   39800   0.43784428   -1.3870664  0.059879628  -0.88970735     1.292122 
   39850   0.44687171   -1.3986696  0.057932875  -0.89423737    1.2166566 
   39900         0.45   -1.3821303  0.066413554  -0.86609175     1.358008 
   39950   0.45663229   -1.3899381  0.064596423   -0.8690899    1.3452628 
   40000   0.45060327   -1.3858649  0.065217584  -0.87041954    1.3591597 
   40050   0.44352865   -1.3727561  0.067507274  -0.86208982    1.4180421 
   40100   0.45518536   -1.3717582  0.053045812  -0.86390635     1.334268 
   40150   0.45917086   -1.3781842  0.049011685  -0.87038431    1.4183649 
   40200   0.46035492   -1.3920289  0.059694227  -0.87236336    1.3791855 
   40250     0.455414   -1.3840105  0.063302677  -0.86567335    1.3354892 
   40300   0.45311592   -1.3920925  0.063846551  -0.87550763    1.3151922 
   40350   0.46330463   -1.3995374  0.069993901  -0.86662497    1.2531942 
   40400   0.45456389   -1.3751406  0.054828829  -0.86612672    1.3860922 
   40450   0.46929557   -1.3882122   0.05418066  -0.86512706    1.2710172 
   40500   0.45055299   -1.3786665  0.063150727  -0.86533823    1.3695001 
   40550   0.44692649   -1.3802405  0.070442982  -0.86324342    1.3068848 
   40600   0.44904523   -1.3817609  0.068214678  -0.86487523    1.3408722 
   40650   0.46607199   -1.3875584   0.06035279  -0.86152203    1.2931458 
   40700   0.44701922    -1.373468  0.057755988  -0.86906534     1.539593 
   40750   0.44238076   -1.3709462  0.062630884  -0.86630318    1.4214114 
   40800   0.45800678   -1.3871695  0.058529497  -0.87101487    1.4121999 
   40850   0.46722206   -1.3879706  0.056099451   -0.8650384    1.2783986 
   40900   0.45481731   -1.3870647  0.060372356  -0.87225401    1.2931322 
   40950   0.45737298   -1.3948819  0.064664143  -0.87322597    1.2742551 
   41000   0.45259349   -1.3841676  0.054767832  -0.87718345    1.4009539 
   41050   0.45447019   -1.3854222   0.05886061  -0.87247009    1.2682846 
   41100   0.44497642   -1.3744924  0.058778381  -0.87110842    1.4436396 
   41150   0.42909871     -1.37345  0.061132438  -0.88357645     1.487653 
   41200   0.43183406   -1.3773352  0.066939747  -0.87892127    1.3706128 
   41250   0.43936522   -1.3749705  0.059771125  -0.87620034     1.471349 
   41300   0.45517008   -1.3893593  0.060460085  -0.87410847    1.3157786 
   41350   0.46070818   -1.3906846  0.056758369  -0.87360198    1.3485742 
   41400   0.43358411   -1.3632601  0.060219795  -0.86981753    1.5144836 
   41450   0.46260484   -1.3884436   0.05694268  -0.86928154    1.2690379 
   41500   0.43871059   -1.3756669  0.064847163  -0.87247476    1.5204223 
   41550   0.46271516   -1.3888213  0.061119065  -0.86537269    1.3912947 
   41600   0.45575637   -1.3812165  0.062000692  -0.86383929    1.4053339 
   41650   0.44839795   -1.3767395  0.062977712  -0.86573748    1.4021106 
   41700   0.45573948   -1.3829251  0.057473389  -0.87009197     1.300791 
   41750   0.45329803   -1.3830584  0.057088585  -0.87304953    1.3833709 
   41800   0.45283793   -1.3744987  0.056782022  -0.86525611    1.3943992 
   41850   0.44967142   -1.3790387  0.064965898  -0.86477612    1.3507278 
   41900   0.45429737   -1.3755025  0.058556235  -0.86302746    1.4882739 
   41950   0.45927961   -1.3860989  0.067104112  -0.86009786    1.2877223 
   42000   0.46641612   -1.4016054  0.067131527  -0.86844648     1.191264 
   42050   0.46011714   -1.3858698  0.061597758  -0.86453834    1.2534461 
   42100   0.44868099   -1.3828553  0.064999013  -0.86954917    1.3413793 
   42150   0.45585248   -1.3818666   0.05924346  -0.86715052    1.2901638 
   42200   0.46666868   -1.4005833  0.067787069  -0.86651641    1.2775104 
   42250    0.4565897   -1.3925763  0.062896103  -0.87347099    1.2930189 
   42300   0.46418113    -1.385512  0.055821107  -0.86589659    1.3538933 
   42350   0.47669747   -1.3945404  0.053152129  -0.86508807    1.1489669 
   42400   0.45646437   -1.3697626  0.053705464  -0.85997318    1.4362631 
   42450   0.46402404   -1.3887763  0.058996967  -0.86614201    1.3774595 
   42500   0.44707253   -1.3764038  0.064554042  -0.86514982    1.4636394 
   42550   0.43240618   -1.3634683  0.062347848  -0.86907462    1.4780075 
   42600   0.46843717   -1.3952958  0.055769461  -0.87147956    1.3153918 
   42650   0.45262876    -1.380854   0.05991449  -0.86868797    1.4113754 
   42700   0.45836141   -1.3871745  0.058044648  -0.87115036    1.3068318 
   42750   0.45562785   -1.3874828  0.063407715  -0.86882689    1.2585594 
   42800   0.45033223   -1.3819753  0.060548479  -0.87146984    1.3599437 
   42850   0.44593032   -1.3643218  0.054161719  -0.86460138    1.4182334 
   42900   0.44704043   -1.3776405  0.061396552  -0.86957608    1.3615458 
   42950   0.45684191   -1.3742643  0.048673418  -0.86912963    1.3505927 
   43000   0.45666008    -1.389049  0.058004207  -0.87476525    1.2138652 
   43050   0.45168502   -1.3781091  0.067990651   -0.8588098    1.3539704 
   43100   0.45923651   -1.3849865  0.059029929  -0.86710278    1.3340137 
   43150   0.44663225   -1.3843608  0.068516424  -0.86958427    1.2594087 
   43200    0.4524211   -1.3854658  0.063686662  -0.86973509    1.1855468 
   43250   0.44832128   -1.3825804  0.065563696  -0.86906906    1.2794094 
   43300    0.4337114    -1.364756  0.058130767  -0.87327525    1.4712457 
   43350    0.4528945   -1.3882622  0.066144847  -0.86960025    1.2051593 
   43400   0.44707704   -1.3853759  0.069528904   -0.8691425    1.3312795 
   43450   0.44859485   -1.3841916  0.064671557  -0.87129899    1.3903535 
   43500   0.44685831   -1.3753112  0.059553547  -0.86927175    1.3952907 
   43550   0.44530432   -1.3771195  0.067355651  -0.86483065    1.3960845 
   43600   0.43981871   -1.3801828  0.065936988  -0.87479357    1.4363368 
   43650   0.45827259    -1.385669  0.059255447  -0.86852285    1.3264998 
   43700   0.45731965   -1.3928939  0.063790612  -0.87216473    1.1799598 
   43750   0.45804815    -1.386675  0.055225659  -0.87378293    1.2788776 
   43800   0.45757301   -1.3924153  0.053957362  -0.88126621    1.2503962 
   43850   0.45099166   -1.3812022  0.054063849  -0.87652252    1.3930647 
   43900   0.44481134    -1.381084  0.058730471  -0.87791285    1.3896828 
   43950   0.44531972   -1.3829198  0.061776782  -0.87619439    1.3557834 
   44000    0.4440449    -1.381847   0.06410974  -0.87406237    1.4064662 
   44050   0.44278699   -1.3839497  0.070768396  -0.87076332    1.3321883 
   44100   0.46352582   -1.3986507  0.064897947  -0.87061324    1.2834883 
   44150   0.43926873   -1.3776131  0.063144251  -0.87556621    1.4500975 
   44200   0.44493951   -1.3730899  0.057114949  -0.87140621    1.4898694 
   44250   0.44992503   -1.3735584  0.058683465  -0.86532487    1.4008518 
   44300   0.44349259   -1.3744847  0.059111486  -0.87225017    1.4379829 
   44350   0.45773735   -1.3812817  0.053300998  -0.87062481    1.3844332 
   44400   0.45174859   -1.3818704  0.062756939  -0.86774134     1.374179 
   44450   0.44589579   -1.3740539   0.06112883  -0.86740086    1.4242925 
   44500   0.44958699   -1.3748009  0.056470096  -0.86911848    1.3350506 
   44550   0.44671746   -1.3784986  0.057206255   -0.8749471    1.3896082 
   44600   0.45392906   -1.3816333  0.055118075  -0.87296448    1.4323928 
   44650   0.44469228   -1.3816775   0.05861028  -0.87874555    1.3551255 
   44700   0.44782657    -1.379176  0.063912198  -0.86781037    1.3053179 
   44750   0.47404441   -1.4030976  0.057030589  -0.87241759    1.1584989 
   44800     0.460482   -1.3905081  0.056007319  -0.87440253    1.2103278 
   44850   0.44115415   -1.3727434  0.060042994  -0.87191387    1.3688611 
   44900   0.45207411    -1.379868  0.055595462  -0.87257512    1.3264175 
   44950   0.46165047   -1.3801505  0.055007561   -0.8638772    1.3403298 
   45000   0.45953518   -1.3881914  0.062317434  -0.86672171    1.3032797 
   45050    0.4457477    -1.379303  0.061860051  -0.87206671    1.3487308 
   45100   0.44543192   -1.3717494  0.054894264  -0.87179443    1.3695155 
   45150   0.44814206   -1.3795016  0.060121479  -0.87161156    1.2219563 
   45200   0.45857396   -1.3836133  0.059373726  -0.86604777    1.2841014 
   45250    0.4506397    -1.374581  0.052227798  -0.87208903    1.3783208 
   45300   0.46724398   -1.3947118  0.057140909  -0.87071626    1.2547909 
   45350   0.44802854   -1.3753134  0.060322922  -0.86733526    1.4763358 
   45400    0.4497081   -1.3831263  0.060930911    -0.872862    1.3169629 
   45450   0.44961276   -1.3802071  0.062441251  -0.86852776    1.4004246 
   45500   0.46153114   -1.3788259  0.052537708  -0.86514163    1.3943429 
   45550   0.46246498   -1.4020512  0.066455231   -0.8735164    1.2317329 
   45600   0.44525555   -1.3769959  0.064214559  -0.86789682    1.4852294 
   45650   0.46490982    -1.401648  0.064116035  -0.87300954    1.2889818 
   45700    0.4591603   -1.3811626  0.052020978  -0.87036392    1.3974115 
   45750   0.45745996   -1.3897778  0.065304307  -0.86739477    1.2452856 
   45800   0.45526084   -1.3842522  0.062432926  -0.86693779    1.3342117 
   45850    0.4473481   -1.3732147  0.059273205  -0.86696622    1.4776861 
   45900    0.4521916    -1.376713  0.054597181  -0.87030105    1.4608577 
   45950    0.4511305   -1.3863634  0.063568163  -0.87204071    1.2738938 
   46000     0.450705   -1.3852161   0.06288507  -0.87200166    1.3826387 
   46050   0.46296818   -1.3922942  0.067944764  -0.86176704    1.2990144 
   46100   0.45413316   -1.3801766  0.053255692  -0.87316615    1.4286946 
   46150   0.45186142   -1.3821603  0.057283037  -0.87339244    1.3279979 
   46200   0.45715183   -1.3925513  0.066946934  -0.86883348    1.2729279 
   46250   0.44943766   -1.3766596  0.057892878  -0.86970356    1.3892181 
   46300   0.45730756   -1.3828461  0.055352465  -0.87056712    1.3826455 
   46350   0.45782071   -1.3853909  0.058798519  -0.86915317    1.2957235 
   46400   0.45413913   -1.3828585   0.06157788  -0.86751997    1.3579064 
   46450    0.4615609   -1.3924103  0.059715207  -0.87151882    1.2697801 
   46500   0.44333141   -1.3743387  0.065771297  -0.86560545    1.4829498 
   46550   0.46360612   -1.3901761  0.058910456  -0.86804591    1.3453827 
   46600   0.46807034   -1.3980779  0.060105338  -0.87029227    1.2456175 
   46650   0.45831669   -1.3803027  0.055293404  -0.86707449    1.4225583 
   46700   0.45066453   -1.3886909  0.070902524  -0.86749941    1.3915759 
   46750   0.45125301   -1.3986895  0.069601421  -0.87821115    1.2432552 
   46800   0.44301235   -1.3715604  0.052617298  -0.87629991    1.4143325 
   46850    0.4557284   -1.3842195  0.055253475  -0.87361738    1.3616389 
   46900         0.45   -1.4037022  0.056539616   -0.8975376    1.1993115 
   46950   0.43714671   -1.3831444  0.050790885  -0.89557111    1.3923062 
   47000   0.44083793   -1.3953563  0.061773263  -0.89311251    1.2614294 
   47050   0.44555497   -1.4052423  0.061680892  -0.89837774    1.1818454 
   47100         0.45    -1.386115  0.064276953    -0.872213    1.2885095 
   47150   0.45224559   -1.3848425  0.056131425  -0.87684239    1.3376017 
   47200   0.45278962   -1.3890939  0.061933811  -0.87474779    1.3052881 
   47250   0.45489161   -1.3822622  0.059454616  -0.86829509    1.2237439 
   47300   0.45647474   -1.3851208  0.051705209  -0.87732127    1.3216934 
   47350   0.44154601   -1.3844914  0.068044519   -0.8752688    1.4195201 
   47400   0.45701609   -1.3966341  0.065151848  -0.87484697    1.2650066 
   47450   0.46629633   -1.3900049  0.056804792  -0.86729237    1.1717931 
   47500   0.45039527   -1.3895964  0.066034122  -0.87354233    1.2015987 
   47550   0.44175685   -1.3794657  0.065270462  -0.87280648     1.375898 
   47600   0.44173873   -1.3775858  0.063674863  -0.87254034    1.2985748 
   47650   0.45807942    -1.400502  0.068885907  -0.87391836    1.2279847 
   47700   0.46417306   -1.3977141  0.065548293  -0.86837958    1.1219938 
   47750   0.44972827   -1.3864277  0.063523012  -0.87355121    1.3558681 
   47800    0.4351573   -1.3664465  0.062537637  -0.86911424    1.4241763 
   47850   0.45683666   -1.3838463  0.057418827  -0.86997151    1.1541035 
   47900   0.44991977    -1.377225   0.06172033  -0.86595983    1.3359313 
   47950   0.45518213   -1.3797305  0.053538532  -0.87138915    1.3612513 
   48000   0.46714941   -1.3915087  0.062441062  -0.86230749    1.2196012 
   48050   0.46231707   -1.3970024  0.061973217  -0.87309742    1.1876557 
   48100   0.44096462   -1.3830452  0.064971698  -0.87747637    1.3970017 
   48150    0.4623591   -1.4023485  0.068116681  -0.87225805    1.2384811 
   48200    0.4576968   -1.3812145  0.057819461  -0.86607969    1.3778185 
   48250   0.45659283   -1.3821763  0.052586592  -0.87337734    1.3220301 
   48300   0.46144726   -1.3834142  0.056489536  -0.86586196    1.2514595 
   48350   0.46420682   -1.3941215  0.060987382  -0.86931413    1.1760669 
   48400   0.46083293   -1.4045244  0.075123896  -0.86895161    1.1635619 
   48450   0.44795121   -1.3910345  0.070834871  -0.87262175     1.333452 
   48500   0.43207877   -1.3642125  0.063327092  -0.86916675    1.5228841 
   48550   0.44846067   -1.3749474  0.056164217  -0.87069619    1.4221194 
   48600   0.45159419    -1.381002  0.058449584  -0.87133457     1.287541 
   48650   0.44754718   -1.3787478  0.061574177  -0.86999942    1.3012931 
   48700   0.45961178   -1.3915418  0.053956194  -0.87835679    1.2943159 
   48750   0.45117869   -1.3884998  0.057864247  -0.87983286    1.2661786 
   48800   0.43307641   -1.3597408  0.061705692  -0.86531956    1.5010416 
   48850   0.45955875   -1.3943337  0.063074282  -0.87208364    1.2005776 
   48900   0.45970028     -1.38949  0.058891426  -0.87128137     1.261247 
   48950   0.45409036   -1.3815856  0.059005815  -0.86886786     1.392429 
   49000   0.45601924   -1.3976167  0.062000905  -0.87997652    1.2776242 
   49050   0.44521918   -1.3757511  0.056558308  -0.87434464    1.3995629 
   49100   0.45133052   -1.3770139  0.057768184  -0.86829127    1.3639004 
   49150   0.45441489   -1.3885367  0.062891581  -0.87160891    1.2898403 
[...]
   87550   0.42587912   -1.3925977  0.060928172  -0.90614526    1.2835186 
   87600   0.43051132   -1.3889663  0.056069109  -0.90274462    1.1943996 
   87650   0.42168211   -1.3938186  0.060574457  -0.91191346    1.2427212 
   87700         0.45   -1.3973281  0.062164253  -0.88553883    1.2216297 
   87750   0.44646941   -1.3854985  0.059704604  -0.87969656    1.3337426 
   87800   0.45048835   -1.3942928  0.060536716  -0.88364317    1.2446803 
   87850   0.43334754   -1.3742394  0.063769535  -0.87748347    1.4987773 
   87900    0.4577151   -1.4052358  0.060427866  -0.88747428    1.2501481 
   87950   0.46575721   -1.3940991  0.047113432  -0.88161664    1.2098463 
   88000   0.45771359   -1.3953457  0.055722643  -0.88229093    1.2282509 
   88050   0.46168983    -1.410546  0.061260536   -0.8879804    1.0248166 
   88100   0.46777862   -1.4060538  0.054180162  -0.88448486    1.1823041 
   88150   0.45711548   -1.3971471  0.057311404  -0.88310113     1.208188 
   88200    0.4628799   -1.4017898  0.058198894  -0.88109672    1.1587273 
   88250    0.4503689   -1.3894149  0.059501372   -0.8799199    1.1733797 
   88300   0.45134199   -1.3947898  0.057678702  -0.88614524     1.174798 
   88350   0.46302604   -1.3994795  0.052560721  -0.88427855    1.1644756 
   88400   0.45825107   -1.3890954  0.050507656   -0.8807185    1.2463333 
   88450   0.44922662   -1.3950224  0.057511316  -0.88865885    1.2803421 
   88500   0.45659627   -1.4002751  0.057762462  -0.88629684    1.1221784 
   88550   0.45253162   -1.3917095   0.05647485  -0.88308011     1.232899 
   88600   0.43210006   -1.3833766  0.069094308  -0.88254232    1.3075462 
   88650   0.47319381   -1.4146522  0.057631671  -0.88422101    1.0811315 
   88700   0.44717488   -1.3881096  0.058851843  -0.88245551    1.2762883 
   88750   0.45342229   -1.3890487  0.059061724  -0.87694251    1.1824616 
   88800   0.46049343   -1.3981046  0.056689903  -0.88130503    1.1914816 
   88850   0.45752717   -1.3960917  0.062269693  -0.87667612    1.1916558 
   88900   0.44989448   -1.3951154  0.067424676   -0.8781712    1.1679461 
   88950   0.45829909   -1.3917278  0.062952238  -0.87085838    1.1365544 
   89000   0.45430714   -1.3930575   0.06352783  -0.87560112    1.2330254 
   89050   0.45759087   -1.4127396   0.06943966  -0.88609041    1.1008309 
   89100     0.462958   -1.4031416  0.059851608  -0.88071781    1.1779089 
   89150   0.44105139   -1.3869593  0.063114982   -0.8831605    1.3336126 
   89200   0.46612807   -1.4030741  0.056707951  -0.88062656    1.2649886 
   89250    0.4458183   -1.3892026  0.061655274  -0.88210057    1.3033108 
   89300   0.46143542    -1.405014  0.063269655  -0.88069348    1.2228228 
   89350   0.46920058   -1.4122175  0.059484968  -0.88392293    1.0857635 
   89400   0.45859449   -1.4046559  0.065250022  -0.88119357    1.2008668 
   89450   0.45856118   -1.3909971  0.057050481  -0.87576755    1.2373754 
   89500   0.45016554   -1.3920525  0.061936084  -0.88032599    1.2929059 
   89550   0.45204679   -1.3979718  0.065042271  -0.88125942    1.2596899 
   89600   0.45885203   -1.3998068  0.058922088  -0.88241509    1.2034989 
   89650   0.44572811   -1.3766691  0.056937479    -0.874375    1.3850107 
   89700   0.44268879   -1.3817298   0.06176678  -0.87764314    1.3082774 
   89750   0.44704022   -1.3915187  0.066314752  -0.87853627    1.2978148 
   89800   0.44126798   -1.3835062  0.061490387   -0.8811155    1.2940949 
   89850   0.46080351   -1.3913925  0.051078533  -0.87989447     1.256734 
   89900   0.45449959   -1.3983885  0.061917211   -0.8823504    1.2516849 
   89950   0.44127087   -1.3922605  0.072491847  -0.87886555     1.231528 
   90000   0.46352957   -1.4026728  0.060088105  -0.87944145     1.212929 
   90050   0.44673976   -1.3907504  0.062870003  -0.88151291    1.2247502 
   90100   0.44967613   -1.4019753  0.063076456  -0.88959748    1.2148388 
   90150   0.45372842   -1.4021538  0.063210365  -0.88559316    1.1616123 
   90200   0.44197209   -1.3943015  0.064033045  -0.88866464    1.2075287 
   90250   0.45066774   -1.3976915  0.063645909  -0.88375338    1.2494428 
   90300   0.46046354   -1.3995547  0.057815627  -0.88165923    1.2052215 
   90350   0.45803461   -1.3921389   0.05267752  -0.88180844    1.2598999 
   90400   0.44481572   -1.3918575  0.057821516  -0.88959099    1.2670954 
   90450   0.43819766   -1.3910695  0.066706322  -0.88653069    1.2593215 
   90500   0.44547622   -1.3924651  0.063644771  -0.88371531    1.3127394 
   90550   0.46079785     -1.40959  0.064358564  -0.88481754    1.1431879 
   90600   0.44217276   -1.3816128  0.059171186  -0.88063734    1.3753424 
   90650    0.4420113   -1.3930308  0.066204596  -0.88518328    1.3745637 
   90700   0.43981989   -1.3874879  0.064998131  -0.88303637    1.3353819 
   90750   0.45192759   -1.3913025  0.060299667  -0.87945187    1.2884849 
   90800   0.46224203   -1.4004223  0.058972738  -0.87959271    1.2337902 
   90850   0.45689854   -1.3956117  0.062775555  -0.87631839    1.2163283 
   90900   0.45562915   -1.3995056  0.059209146  -0.88504702    1.2390398 
   90950   0.44990024   -1.3956055  0.066417692  -0.87966248    1.2498847 
   91000    0.4556011   -1.4028228  0.069286188  -0.87831516    1.1744898 
   91050    0.4770062   -1.4096435  0.053754755  -0.87928005    1.0976261 
   91100   0.45926265   -1.3908827  0.061150984   -0.8708518    1.2349773 
   91150   0.45054366   -1.3889288  0.061334718  -0.87742583    1.3263217 
   91200    0.4516257    -1.384214  0.054249492  -0.87871512    1.2904972 
   91250   0.46351477   -1.4122664  0.066987338   -0.8821505    1.1317391 
   91300    0.4518753   -1.3874334  0.055436897  -0.88049777     1.284287 
   91350   0.44851541   -1.3912908   0.06642166   -0.8767275     1.255184 
   91400   0.44607745   -1.3839248  0.056352313   -0.8818668    1.2921721 
   91450   0.45539111   -1.4009403  0.061861535   -0.8840672    1.2487752 
   91500   0.44919184   -1.3887881  0.064319258  -0.87565134    1.1655215 
   91550   0.46291889   -1.4036002  0.057140346  -0.88392677    1.1878726 
   91600    0.4513522   -1.3964519  0.060720372  -0.88475547    1.2254632 
   91650   0.44054441   -1.3854665  0.062439397  -0.88284982     1.277053 
   91700   0.44156758   -1.3876116  0.061116017  -0.88529601    1.2824633 
   91750   0.46152051   -1.3992133   0.05406508  -0.88401231    1.1439445 
   91800   0.45316666   -1.3944134  0.054513938  -0.88711048    1.2108411 
   91850   0.44033462   -1.3902652  0.062386526  -0.88791101    1.2661383 
   91900   0.45056459   -1.3994962   0.06427465  -0.88503244    1.2738333 
   91950   0.45339953   -1.4102827   0.07248255  -0.88477849    1.0759168 
   92000   0.45440546    -1.401021  0.057461811  -0.88953239    1.2106661 
   92050   0.44718965   -1.3970724   0.06274241  -0.88751303    1.3502067 
   92100   0.44258158   -1.3866401  0.063027351  -0.88139996    1.3609617 
   92150    0.4457523   -1.3894361  0.060586057  -0.88346922    1.3062835 
   92200   0.45860251   -1.4035531  0.055626532  -0.88970619    1.2352287 
   92250    0.4528418   -1.3949359  0.058226234  -0.88424526    1.2686059 
   92300   0.46806939   -1.4085513  0.055156832  -0.88571513     1.247274 
   92350    0.4390658   -1.3868862  0.064270352  -0.88391598    1.4150573 
   92400   0.44949219   -1.3880251  0.055503025  -0.88340445    1.3512256 
   92450   0.46421819   -1.3989587  0.054076852  -0.88105052    1.1803695 
   92500   0.45707737   -1.3935455  0.056962484  -0.87988654    1.1678608 
   92550   0.45106458    -1.395675  0.064215741  -0.88077057     1.250413 
   92600   0.44097208    -1.383286  0.061752271  -0.88092915    1.2414869 
   92650   0.44653209   -1.3845052  0.062474223  -0.87587097    1.2854347 
   92700   0.46228808   -1.4009164  0.063105964  -0.87590757     1.083593 
   92750   0.44596856   -1.3778992  0.055838997  -0.87646331    1.2986342 
   92800   0.45196822   -1.4035919  0.067375785  -0.88462458    1.2291006 
   92850   0.46335482   -1.4104538  0.062348211  -0.88513686    1.1808513 
   92900   0.45666088   -1.3885815  0.052289581  -0.88001163    1.3442853 
   92950   0.45595352   -1.3964234  0.053760278  -0.88708958    1.1981563 
   93000   0.45729199   -1.3944012  0.054288191  -0.88320208    1.1808506 
   93050   0.45491299   -1.3969734   0.06125773  -0.88118182    1.2148657 
   93100   0.45764953   -1.4072438  0.059340068  -0.89063562    1.2688452 
   93150   0.44662793   -1.3990381  0.064330133  -0.88845224    1.2655845 
   93200         0.45   -1.4054253  0.053022828   -0.9027775    1.1829664 
   93250   0.44839059   -1.4017903   0.05328632  -0.90048708    1.1912868 
   93300   0.45946905   -1.4146499   0.05308427  -0.90247951    1.1569392 
   93350   0.45195833   -1.4075172  0.052966959  -0.90296859    1.2651429 
   93400   0.43785003   -1.3967529  0.054956708  -0.90431101    1.2776643 
   93450   0.44193287   -1.4019542  0.053217515  -0.90717205    1.1748888 
   93500   0.44992095   -1.4052823  0.054112531  -0.90162374     1.171829 
   93550   0.44174564   -1.4006995  0.057336615  -0.90198538    1.2798899 
   93600         0.45   -1.3986368  0.064793728  -0.88421807    1.2908394 
   93650   0.45087534   -1.3883281  0.062226237  -0.87560221    1.2661818 
   93700   0.45560738   -1.3862373  0.055271534   -0.8757381    1.2562976 
   93750   0.45615899   -1.3976411  0.062272652  -0.87958958    1.1898542 
   93800   0.45823452     -1.39295  0.061301049   -0.8737963    1.2319638 
   93850   0.45025237   -1.3912823  0.061950521  -0.87945466     1.284039 
   93900   0.45706679   -1.3912136  0.059266688  -0.87526106    1.3224341 
   93950   0.46172675    -1.388987  0.057857327  -0.86978768    1.1979325 
   94000         0.45   -1.4125282  0.066741126  -0.89616209    1.0915007 
   94050   0.43423462    -1.388977  0.056393909  -0.89871033    1.2868896 
   94100   0.44519098   -1.4059255  0.064276283  -0.89682926    1.1377603 
   94150   0.43869966   -1.4061576  0.063898761  -0.90392475    1.1319346 
   94200   0.44515073   -1.3984586  0.054791938  -0.89888689    1.2601829 
   94250   0.44580107   -1.4108671  0.065542051  -0.89989547    1.1193654 
   94300    0.4529236   -1.4017227  0.052442223  -0.89673428    1.2535157 
   94350   0.44100666   -1.3977907  0.060886062   -0.8962655    1.1796819 
   94400     0.436358   -1.3934378  0.061127802  -0.89631563    1.2228162 
   94450   0.45161524   -1.3995541  0.051752812  -0.89656236    1.1847171 
   94500   0.43738141   -1.3959517  0.058496572  -0.90043821    1.2748472 
   94550   0.45079341   -1.3994697  0.052452683  -0.89659922    1.2636519 
   94600         0.45   -1.3819295  0.056760856  -0.87554362    1.3521724 
   94650   0.45299635     -1.38856   0.06060718  -0.87533398    1.3964615 
   94700   0.45571651   -1.3950691  0.060056991  -0.87967533    1.2527618 
   94750   0.46271797   -1.4122095  0.069214894  -0.88066228    1.1793605 
   94800   0.45426899    -1.400062  0.060579575  -0.88559203    1.2667761 
   94850   0.44883092   -1.3952298  0.061313265  -0.88545961    1.1904889 
   94900   0.45515733   -1.4086219  0.066321414  -0.88752245    1.1623772 
   94950   0.45947827    -1.397599  0.055793676  -0.88270996    1.2925644 
   95000   0.46604347   -1.4111543  0.062477213  -0.88302196    1.1949629 
   95050   0.44784915   -1.3886826  0.062269143  -0.87893755    1.2868545 
   95100   0.45240791   -1.3916826  0.062701951  -0.87694978    1.2370471 
   95150   0.46127342   -1.4038171  0.058777165  -0.88415094    1.1928316 
   95200   0.45719196   -1.3943954  0.058614605  -0.87896986    1.1780931 
   95250   0.45757659    -1.403542  0.064490963  -0.88185578    1.2007002 
   95300   0.45347488   -1.3918251  0.056043454  -0.88268469    1.2494544 
   95350   0.45518724   -1.3953731  0.063323732  -0.87724148    1.2419783 
   95400   0.46305378   -1.4052866  0.061239632  -0.88137905    1.1946684 
   95450   0.44911544   -1.3875112  0.056599877  -0.88217011    1.3865496 
   95500   0.45805841   -1.3958569  0.063259338   -0.8749209    1.3031123 
   95550   0.45137296   -1.3933736  0.064090732  -0.87828601    1.3258039 
   95600         0.45   -1.4118973   0.05709383  -0.90517846    1.1228866 
   95650   0.45309445   -1.4078383  0.051868681  -0.90325272    1.2518437 
   95700   0.43768867   -1.4044515  0.061831147  -0.90529638    1.1241923 
   95750   0.44860193   -1.4121294  0.058587994  -0.90531335      1.13063 
   95800   0.45342319   -1.4085224  0.053752746  -0.90172432    1.1149476 
   95850   0.45399517   -1.4015286  0.046096998  -0.90181475    1.2444727 
   95900   0.45094913   -1.4142614  0.055943244   -0.9077448    1.1465373 
   95950    0.4403222   -1.4043741  0.063053648  -0.90136517    1.2276479 
   96000   0.44909018   -1.4076215   0.05663097  -0.90227455    1.1367094 
   96050   0.45069448   -1.4024491   0.04906968  -0.90306051    1.1627981 
   96100   0.44325519   -1.4141525  0.061853379  -0.90941336    1.1061522 
   96150   0.43256121   -1.3961713  0.057018019  -0.90695251    1.1325219 
   96200   0.44230716   -1.4000743  0.051516753  -0.90661894    1.1628766 
   96250   0.44501828   -1.4035645  0.057471587  -0.90144545    1.1804446 
   96300   0.44008445   -1.3986466  0.061518311  -0.89741054    1.0770658 
   96350   0.43559595   -1.4045017  0.062836106  -0.90643261    1.1902347 
   96400    0.4496249   -1.4126169  0.063492929  -0.89987372    1.0960052 
   96450   0.43933639   -1.4026744  0.060565083  -0.90313901    1.2113882 
   96500   0.44627993   -1.3997658  0.056996115  -0.89686169    1.1743755 
   96550   0.43841218   -1.4015524  0.063990715  -0.89951487    1.0504474 
   96600    0.4330496   -1.3902759  0.055684118  -0.90190305    1.2031341 
   96650   0.43935829   -1.3925639  0.060717537  -0.89285418    1.2036275 
   96700   0.45100815   -1.4095582  0.059507456  -0.89941839    1.1209158 
   96750   0.43871382   -1.4022737  0.068934316  -0.89499117    1.2159709 
   96800   0.43916473   -1.3882895  0.051244766  -0.89824594    1.2681694 
   96850   0.44971578   -1.4024276  0.051943776  -0.90114277    1.1830255 
   96900   0.45069231   -1.4218395  0.063352625  -0.90817018    1.0892119 
   96950   0.42761865   -1.3910388  0.064125535  -0.89965096    1.3547736 
   97000   0.44588221   -1.4038617  0.059036121  -0.89931494      1.32002 
   97050   0.44748627   -1.4088734   0.05564104  -0.90611895    1.2443443 
   97100   0.43309381    -1.403088  0.064626704  -0.90572842    1.2515462 
   97150   0.45001464   -1.4113838  0.059391817  -0.90235235    1.1369374 
   97200   0.43784131   -1.4073272  0.065210983  -0.90463974    1.1606788 
   97250   0.43418818   -1.3968434  0.059801113  -0.90321591    1.2329344 
   97300   0.43416606   -1.3840126  0.051652354  -0.89855603    1.3673296 
   97350   0.43828761   -1.3940342  0.055753225  -0.90035862     1.161503 
   97400   0.43407936   -1.3960187  0.060465801  -0.90183529    1.1473722 
   97450   0.43707152   -1.3925771  0.056304413   -0.8995654    1.2274898 
   97500         0.45   -1.3946842   0.06000322  -0.88505598    1.2159613 
   97550   0.44399916   -1.3888137  0.063307278  -0.88187724    1.2008802 
   97600   0.45155909   -1.3809575   0.05104474  -0.87873001    1.2705231 
   97650   0.45365589   -1.3900761  0.058729333  -0.87806897    1.3084318 
   97700   0.45536127    -1.391933  0.052530703  -0.88442046    1.2320298 
   97750   0.46719416      -1.4073  0.055138718  -0.88535647    1.1429375 
   97800   0.45078372    -1.392563  0.059790917  -0.88236399    1.2346723 
   97850   0.44657019   -1.4032828  0.070451351  -0.88663337    1.1985167 
   97900   0.45398298   -1.3974571  0.056146407  -0.88770606     1.209325 
   97950    0.4474384   -1.3944506  0.061309578  -0.88607552    1.3073812 
   98000   0.43765943   -1.3891591  0.063721808  -0.88814257    1.2056761 
   98050   0.45785002   -1.3998349  0.056814329  -0.88555214    1.2281186 
   98100   0.45122616   -1.3877771  0.053907687  -0.88301924     1.246296 
   98150   0.43995179   -1.3831913  0.061085679  -0.88252042    1.2856171 
   98200   0.45117147   -1.3960861  0.056877891  -0.88841269    1.2182284 
   98250   0.44968431   -1.4021356  0.066913219  -0.88591276    1.1764489 
   98300   0.45509614   -1.3976768  0.065939727   -0.8770202    1.1557294 
   98350   0.44382021   -1.3903285  0.064404423  -0.88247368    1.3889746 
   98400   0.45018654   -1.3928765  0.065549016  -0.87751605    1.2923557 
   98450   0.47187922   -1.4165788   0.06330319  -0.88178958    1.1394776 
   98500   0.45050937   -1.3892072  0.058073586  -0.88099962    1.3676165 
   98550   0.46144368   -1.3982398  0.060094379  -0.87708627    1.2993296 
   98600   0.46572191   -1.3996941  0.056834595  -0.87752575    1.2343655 
   98650   0.44755937   -1.3841145   0.05976034  -0.87716775    1.3446826 
   98700   0.45414638   -1.4109871  0.074798496  -0.88242068     1.133823 
   98750   0.46175051   -1.4074128  0.068686085  -0.87736096    1.1284196 
   98800   0.45489655   -1.3972282  0.065853829  -0.87685689    1.1936466 
   98850   0.46093861   -1.3939186  0.057326848  -0.87603728    1.2892678 
   98900   0.45393037   -1.3953535  0.064026971  -0.87777446    1.2548614 
   98950   0.44931596   -1.3995457  0.061770156  -0.88883397    1.2410138 
   99000   0.46241227   -1.4041095  0.066449365   -0.8756332    1.1463798 
   99050   0.45281147   -1.3980755  0.064165699  -0.88147564    1.2892243 
   99100   0.44561919   -1.3970428  0.069129628   -0.8826653    1.1706338 
   99150     0.450715   -1.4013033   0.07066253  -0.88030139     1.127254 
   99200   0.45745485   -1.4031726  0.062308263  -0.88379066    1.2359042 
   99250   0.45511182   -1.3901416  0.053697488  -0.88171159    1.2700249 
   99300   0.45035358   -1.3863856   0.05930655  -0.87710075    1.2542122 
   99350   0.46476203   -1.4053892  0.062086263  -0.87892818    1.1807805 
   99400   0.45992937   -1.4000406  0.062976684  -0.87751783    1.1944827 
   99450   0.45407836   -1.3898649  0.059950487   -0.8762144    1.2124449 
   99500   0.46189903   -1.3977859  0.056565743  -0.87970605    1.1868808 
   99550   0.44561188   -1.3915545  0.064547205  -0.88176679    1.3068159 
   99600   0.44910796   -1.3904408  0.059040347  -0.88266678    1.3649487 
   99650   0.45683488   -1.3980601  0.062110011   -0.8794959    1.2674976 
   99700   0.46981064   -1.4123452  0.061702614  -0.88122347    1.1278737 
   99750   0.45950625   -1.4022733  0.060220809  -0.88292913    1.0908603 
   99800   0.46927891   -1.4088805  0.058203886   -0.8817888    1.1738457 
   99850   0.43882501    -1.377675  0.058251805  -0.88096391    1.4309672 
   99900   0.44691038   -1.3986518  0.067790843  -0.88432297    1.2862368 
   99950   0.45204692   -1.3915745  0.058003972  -0.88190032    1.2065666 
  100000   0.46107176   -1.4015883  0.063237076   -0.8776637    1.0986215 
Loop time of 6.53472 on 4 procs for 100000 steps with 1200 atoms

Performance: 6610842.374 tau/day, 15302.876 timesteps/s
99.6% CPU use with 4 MPI tasks x no OpenMP threads

MPI task timing breakdown:
Section |  min time  |  avg time  |  max time  |%varavg| %total
---------------------------------------------------------------
Pair    | 3.5238     | 3.6263     | 3.6968     |   3.4 | 55.49
Bond    | 0.15333    | 0.17883    | 0.20852    |   4.6 |  2.74
Neigh   | 1.0046     | 1.0054     | 1.0062     |   0.1 | 15.39
Comm    | 0.81794    | 0.92446    | 1.053      |   8.8 | 14.15
Output  | 0.17071    | 0.17271    | 0.1785     |   0.8 |  2.64
Modify  | 0.40594    | 0.4146     | 0.42697    |   1.2 |  6.34
Other   |            | 0.2124     |            |       |  3.25

Nlocal:        300.000 ave         324 max         286 min
Histogram: 1 1 1 0 0 0 0 0 0 1
Nghost:        229.000 ave         235 max         219 min
Histogram: 1 0 0 0 0 0 0 2 0 1
Neighs:        2506.00 ave        2648 max        2403 min
Histogram: 2 0 0 0 0 0 1 0 0 1

Total # of neighbors = 10024
Ave neighs/atom = 8.3533333
Ave special neighs/atom = 0.50000000
Neighbor list builds = 8173
Dangerous builds = 0
Total wall time: 0:00:06
