ITEM: TIMESTEP
0
ITEM: NUMBER OF ATOMS
420
ITEM: BOX BOUNDS pp ss pp
0.0000000000000000e+00 2.2653923264628304e+01
-1.9618873042551413e-03 1.9620834929855668e+01
-2.8317404080785380e-01 2.8317404080785380e-01
ITEM: ATOMS id type xs ys zs
1 2 0 9.998e-05 0.5
2 2 0.025 0.05009 0.5
3 2 0.05 9.998e-05 0.5
4 2 0.075 0.05009 0.5
5 2 0.1 9.998e-05 0.5
6 2 0.125 0.05009 0.5
7 2 0.15 9.998e-05 0.5
8 2 0.175 0.05009 0.5
9 2 0.2 9.998e-05 0.5
10 2 0.225 0.05009 0.5
11 2 0.25 9.998e-05 0.5
12 2 0.275 0.05009 0.5
13 2 0.3 9.998e-05 0.5
14 2 0.325 0.05009 0.5
15 2 0.35 9.998e-05 0.5
16 2 0.375 0.05009 0.5
17 2 0.4 9.998e-05 0.5
18 2 0.425 0.05009 0.5
19 2 0.45 9.998e-05 0.5
20 2 0.475 0.05009 0.5
21 2 0 0.10008 0.5
23 2 0.05 0.10008 0.5
25 2 0.1 0.10008 0.5
27 2 0.15 0.10008 0.5
29 2 0.2 0.10008 0.5
31 2 0.25 0.10008 0.5
33 2 0.3 0.10008 0.5
35 2 0.35 0.10008 0.5
37 2 0.4 0.10008 0.5
39 2 0.45 0.10008 0.5
22 1 0.025 0.15007 0.5
41 1 0 0.20006 0.5
43 1 0.05 0.20006 0.5
24 1 0.075 0.15007 0.5
45 1 0.1 0.20006 0.5
26 1 0.125 0.15007 0.5
28 1 0.175 0.15007 0.5
47 1 0.15 0.20006 0.5
30 1 0.225 0.15007 0.5
49 1 0.2 0.20006 0.5
32 1 0.275 0.15007 0.5
51 1 0.25 0.20006 0.5
53 1 0.3 0.20006 0.5
34 1 0.325 0.15007 0.5
55 1 0.35 0.20006 0.5
36 1 0.375 0.15007 0.5
38 1 0.425 0.15007 0.5
57 1 0.4 0.20006 0.5
40 1 0.475 0.15007 0.5
59 1 0.45 0.20006 0.5
42 1 0.025 0.25005 0.5
44 1 0.075 0.25005 0.5
46 1 0.125 0.25005 0.5
48 1 0.175 0.25005 0.5
50 1 0.225 0.25005 0.5
52 1 0.275 0.25005 0.5
54 1 0.325 0.25005 0.5
56 1 0.375 0.25005 0.5
58 1 0.425 0.25005 0.5
60 1 0.475 0.25005 0.5
61 1 0 0.30004 0.5
62 1 0.025 0.35003 0.5
63 1 0.05 0.30004 0.5
64 1 0.075 0.35003 0.5
65 1 0.1 0.30004 0.5
66 1 0.125 0.35003 0.5
67 1 0.15 0.30004 0.5
68 1 0.175 0.35003 0.5
69 1 0.2 0.30004 0.5
70 1 0.225 0.35003 0.5
71 1 0.25 0.30004 0.5
72 1 0.275 0.35003 0.5
73 1 0.3 0.30004 0.5
74 1 0.325 0.35003 0.5
75 1 0.35 0.30004 0.5
76 1 0.375 0.35003 0.5
77 1 0.4 0.30004 0.5
78 1 0.425 0.35003 0.5
79 1 0.45 0.30004 0.5
80 1 0.475 0.35003 0.5
81 1 0 0.40002 0.5
83 1 0.05 0.40002 0.5
85 1 0.1 0.40002 0.5
87 1 0.15 0.40002 0.5
89 1 0.2 0.40002 0.5
91 1 0.25 0.40002 0.5
93 1 0.3 0.40002 0.5
95 1 0.35 0.40002 0.5
97 1 0.4 0.40002 0.5
99 1 0.45 0.40002 0.5
82 1 0.025 0.45001 0.5
84 1 0.075 0.45001 0.5
86 1 0.125 0.45001 0.5
88 1 0.175 0.45001 0.5
90 1 0.225 0.45001 0.5
92 1 0.275 0.45001 0.5
94 1 0.325 0.45001 0.5
96 1 0.375 0.45001 0.5
98 1 0.425 0.45001 0.5
100 1 0.475 0.45001 0.5
101 1 0 0.5 0.5
102 1 0.025 0.54999 0.5
103 1 0.05 0.5 0.5
104 1 0.075 0.54999 0.5
105 1 0.1 0.5 0.5
106 1 0.125 0.54999 0.5
107 1 0.15 0.5 0.5
108 1 0.175 0.54999 0.5
109 1 0.2 0.5 0.5
110 1 0.225 0.54999 0.5
111 1 0.25 0.5 0.5
112 1 0.275 0.54999 0.5
113 1 0.3 0.5 0.5
114 1 0.325 0.54999 0.5
115 1 0.35 0.5 0.5
116 1 0.375 0.54999 0.5
117 1 0.4 0.5 0.5
118 1 0.425 0.54999 0.5
119 1 0.45 0.5 0.5
120 1 0.475 0.54999 0.5
121 1 0 0.59998 0.5
123 1 0.05 0.59998 0.5
125 1 0.1 0.59998 0.5
127 1 0.15 0.59998 0.5
129 1 0.2 0.59998 0.5
131 1 0.25 0.59998 0.5
133 1 0.3 0.59998 0.5
135 1 0.35 0.59998 0.5
137 1 0.4 0.59998 0.5
139 1 0.45 0.59998 0.5
122 1 0.025 0.64997 0.5
141 1 0 0.69996 0.5
143 1 0.05 0.69996 0.5
124 1 0.075 0.64997 0.5
145 1 0.1 0.69996 0.5
126 1 0.125 0.64997 0.5
128 1 0.175 0.64997 0.5
147 1 0.15 0.69996 0.5
130 1 0.225 0.64997 0.5
149 1 0.2 0.69996 0.5
132 1 0.275 0.64997 0.5
151 1 0.25 0.69996 0.5
153 1 0.3 0.69996 0.5
134 1 0.325 0.64997 0.5
155 1 0.35 0.69996 0.5
136 1 0.375 0.64997 0.5
138 1 0.425 0.64997 0.5
157 1 0.4 0.69996 0.5
140 1 0.475 0.64997 0.5
159 1 0.45 0.69996 0.5
142 1 0.025 0.74995 0.5
144 1 0.075 0.74995 0.5
146 1 0.125 0.74995 0.5
148 1 0.175 0.74995 0.5
150 1 0.225 0.74995 0.5
152 1 0.275 0.74995 0.5
154 1 0.325 0.74995 0.5
156 1 0.375 0.74995 0.5
158 1 0.425 0.74995 0.5
160 1 0.475 0.74995 0.5
161 1 0 0.79994 0.5
162 1 0.025 0.84993 0.5
163 1 0.05 0.79994 0.5
164 1 0.075 0.84993 0.5
165 1 0.1 0.79994 0.5
166 1 0.125 0.84993 0.5
167 1 0.15 0.79994 0.5
168 1 0.175 0.84993 0.5
169 1 0.2 0.79994 0.5
170 1 0.225 0.84993 0.5
171 1 0.25 0.79994 0.5
172 1 0.275 0.84993 0.5
173 1 0.3 0.79994 0.5
174 1 0.325 0.84993 0.5
175 1 0.35 0.79994 0.5
176 1 0.375 0.84993 0.5
177 1 0.4 0.79994 0.5
178 1 0.425 0.84993 0.5
179 1 0.45 0.79994 0.5
180 1 0.475 0.84993 0.5
181 1 0 0.89992 0.5
183 1 0.05 0.89992 0.5
185 1 0.1 0.89992 0.5
187 1 0.15 0.89992 0.5
189 1 0.2 0.89992 0.5
191 1 0.25 0.89992 0.5
193 1 0.3 0.89992 0.5
195 1 0.35 0.89992 0.5
197 1 0.4 0.89992 0.5
199 1 0.45 0.89992 0.5
182 1 0.025 0.94991 0.5
201 1 0 0.9999 0.5
202 1 0.05 0.9999 0.5
184 1 0.075 0.94991 0.5
203 1 0.1 0.9999 0.5
186 1 0.125 0.94991 0.5
188 1 0.175 0.94991 0.5
204 1 0.15 0.9999 0.5
190 1 0.225 0.94991 0.5
205 1 0.2 0.9999 0.5
192 1 0.275 0.94991 0.5
206 1 0.25 0.9999 0.5
207 1 0.3 0.9999 0.5
194 1 0.325 0.94991 0.5
208 1 0.35 0.9999 0.5
196 1 0.375 0.94991 0.5
198 1 0.425 0.94991 0.5
209 1 0.4 0.9999 0.5
200 1 0.475 0.94991 0.5
210 1 0.45 0.9999 0.5
211 2 0.5 9.998e-05 0.5
212 2 0.525 0.05009 0.5
213 2 0.55 9.998e-05 0.5
214 2 0.575 0.05009 0.5
215 2 0.6 9.998e-05 0.5
216 2 0.625 0.05009 0.5
217 2 0.65 9.998e-05 0.5
218 2 0.675 0.05009 0.5
219 2 0.7 9.998e-05 0.5
220 2 0.725 0.05009 0.5
221 2 0.75 9.998e-05 0.5
222 2 0.775 0.05009 0.5
223 2 0.8 9.998e-05 0.5
224 2 0.825 0.05009 0.5
225 2 0.85 9.998e-05 0.5
226 2 0.875 0.05009 0.5
227 2 0.9 9.998e-05 0.5
228 2 0.925 0.05009 0.5
229 2 0.95 9.998e-05 0.5
230 2 0.975 0.05009 0.5
231 2 0.5 0.10008 0.5
233 2 0.55 0.10008 0.5
235 2 0.6 0.10008 0.5
237 2 0.65 0.10008 0.5
239 2 0.7 0.10008 0.5
241 2 0.75 0.10008 0.5
243 2 0.8 0.10008 0.5
245 2 0.85 0.10008 0.5
247 2 0.9 0.10008 0.5
249 2 0.95 0.10008 0.5
232 1 0.525 0.15007 0.5
251 1 0.5 0.20006 0.5
253 1 0.55 0.20006 0.5
234 1 0.575 0.15007 0.5
255 1 0.6 0.20006 0.5
236 1 0.625 0.15007 0.5
238 1 0.675 0.15007 0.5
257 1 0.65 0.20006 0.5
240 1 0.725 0.15007 0.5
259 1 0.7 0.20006 0.5
242 1 0.775 0.15007 0.5
261 1 0.75 0.20006 0.5
263 1 0.8 0.20006 0.5
244 1 0.825 0.15007 0.5
265 1 0.85 0.20006 0.5
246 1 0.875 0.15007 0.5
248 1 0.925 0.15007 0.5
267 1 0.9 0.20006 0.5
250 1 0.975 0.15007 0.5
269 1 0.95 0.20006 0.5
252 1 0.525 0.25005 0.5
254 1 0.575 0.25005 0.5
256 1 0.625 0.25005 0.5
258 1 0.675 0.25005 0.5
260 1 0.725 0.25005 0.5
262 1 0.775 0.25005 0.5
264 1 0.825 0.25005 0.5
266 1 0.875 0.25005 0.5
268 1 0.925 0.25005 0.5
270 1 0.975 0.25005 0.5
271 1 0.5 0.30004 0.5
272 1 0.525 0.35003 0.5
273 1 0.55 0.30004 0.5
274 1 0.575 0.35003 0.5
275 1 0.6 0.30004 0.5
276 1 0.625 0.35003 0.5
277 1 0.65 0.30004 0.5
278 1 0.675 0.35003 0.5
279 1 0.7 0.30004 0.5
280 1 0.725 0.35003 0.5
281 1 0.75 0.30004 0.5
282 1 0.775 0.35003 0.5
283 1 0.8 0.30004 0.5
284 1 0.825 0.35003 0.5
285 1 0.85 0.30004 0.5
286 1 0.875 0.35003 0.5
287 1 0.9 0.30004 0.5
288 1 0.925 0.35003 0.5
289 1 0.95 0.30004 0.5
290 1 0.975 0.35003 0.5
291 1 0.5 0.40002 0.5
293 1 0.55 0.40002 0.5
295 1 0.6 0.40002 0.5
297 1 0.65 0.40002 0.5
299 1 0.7 0.40002 0.5
301 1 0.75 0.40002 0.5
303 1 0.8 0.40002 0.5
305 1 0.85 0.40002 0.5
307 1 0.9 0.40002 0.5
309 1 0.95 0.40002 0.5
292 1 0.525 0.45001 0.5
294 1 0.575 0.45001 0.5
296 1 0.625 0.45001 0.5
298 1 0.675 0.45001 0.5
300 1 0.725 0.45001 0.5
302 1 0.775 0.45001 0.5
304 1 0.825 0.45001 0.5
306 1 0.875 0.45001 0.5
308 1 0.925 0.45001 0.5
310 1 0.975 0.45001 0.5
311 1 0.5 0.5 0.5
312 1 0.525 0.54999 0.5
313 1 0.55 0.5 0.5
314 1 0.575 0.54999 0.5
315 1 0.6 0.5 0.5
316 1 0.625 0.54999 0.5
317 1 0.65 0.5 0.5
318 1 0.675 0.54999 0.5
319 1 0.7 0.5 0.5
320 1 0.725 0.54999 0.5
321 1 0.75 0.5 0.5
322 1 0.775 0.54999 0.5
323 1 0.8 0.5 0.5
324 1 0.825 0.54999 0.5
325 1 0.85 0.5 0.5
326 1 0.875 0.54999 0.5
327 1 0.9 0.5 0.5
328 1 0.925 0.54999 0.5
329 1 0.95 0.5 0.5
330 1 0.975 0.54999 0.5
331 1 0.5 0.59998 0.5
333 1 0.55 0.59998 0.5
335 1 0.6 0.59998 0.5
337 1 0.65 0.59998 0.5
339 1 0.7 0.59998 0.5
341 1 0.75 0.59998 0.5
343 1 0.8 0.59998 0.5
345 1 0.85 0.59998 0.5
347 1 0.9 0.59998 0.5
349 1 0.95 0.59998 0.5
332 1 0.525 0.64997 0.5
351 1 0.5 0.69996 0.5
353 1 0.55 0.69996 0.5
334 1 0.575 0.64997 0.5
355 1 0.6 0.69996 0.5
336 1 0.625 0.64997 0.5
338 1 0.675 0.64997 0.5
357 1 0.65 0.69996 0.5
340 1 0.725 0.64997 0.5
359 1 0.7 0.69996 0.5
342 1 0.775 0.64997 0.5
361 1 0.75 0.69996 0.5
363 1 0.8 0.69996 0.5
344 1 0.825 0.64997 0.5
365 1 0.85 0.69996 0.5
346 1 0.875 0.64997 0.5
348 1 0.925 0.64997 0.5
367 1 0.9 0.69996 0.5
350 1 0.975 0.64997 0.5
369 1 0.95 0.69996 0.5
352 1 0.525 0.74995 0.5
354 1 0.575 0.74995 0.5
356 1 0.625 0.74995 0.5
358 1 0.675 0.74995 0.5
360 1 0.725 0.74995 0.5
362 1 0.775 0.74995 0.5
364 1 0.825 0.74995 0.5
366 1 0.875 0.74995 0.5
368 1 0.925 0.74995 0.5
370 1 0.975 0.74995 0.5
371 1 0.5 0.79994 0.5
372 1 0.525 0.84993 0.5
373 1 0.55 0.79994 0.5
374 1 0.575 0.84993 0.5
375 1 0.6 0.79994 0.5
376 1 0.625 0.84993 0.5
377 1 0.65 0.79994 0.5
378 1 0.675 0.84993 0.5
379 1 0.7 0.79994 0.5
380 1 0.725 0.84993 0.5
381 1 0.75 0.79994 0.5
382 1 0.775 0.84993 0.5
383 1 0.8 0.79994 0.5
384 1 0.825 0.84993 0.5
385 1 0.85 0.79994 0.5
386 1 0.875 0.84993 0.5
387 1 0.9 0.79994 0.5
388 1 0.925 0.84993 0.5
389 1 0.95 0.79994 0.5
390 1 0.975 0.84993 0.5
391 1 0.5 0.89992 0.5
393 1 0.55 0.89992 0.5
395 1 0.6 0.89992 0.5
397 1 0.65 0.89992 0.5
399 1 0.7 0.89992 0.5
401 1 0.75 0.89992 0.5
403 1 0.8 0.89992 0.5
405 1 0.85 0.89992 0.5
407 1 0.9 0.89992 0.5
409 1 0.95 0.89992 0.5
392 1 0.525 0.94991 0.5
411 1 0.5 0.9999 0.5
412 1 0.55 0.9999 0.5
394 1 0.575 0.94991 0.5
413 1 0.6 0.9999 0.5
396 1 0.625 0.94991 0.5
398 1 0.675 0.94991 0.5
414 1 0.65 0.9999 0.5
400 1 0.725 0.94991 0.5
415 1 0.7 0.9999 0.5
402 1 0.775 0.94991 0.5
416 1 0.75 0.9999 0.5
417 1 0.8 0.9999 0.5
404 1 0.825 0.94991 0.5
418 1 0.85 0.9999 0.5
406 1 0.875 0.94991 0.5
408 1 0.925 0.94991 0.5
419 1 0.9 0.9999 0.5
410 1 0.975 0.94991 0.5
420 1 0.95 0.9999 0.5
ITEM: TIMESTEP
250
ITEM: NUMBER OF ATOMS
420
ITEM: BOX BOUNDS pp ss pp
0.0000000000000000e+00 2.2653923264628304e+01
-1.9618873042551413e-03 1.9966441281366482e+01
-2.8317404080785380e-01 2.8317404080785380e-01
ITEM: ATOMS id type xs ys zs
1 2 0 9.82496e-05 0.5
2 2 0.025 0.049223 0.5
3 2 0.05 9.82496e-05 0.5
4 2 0.075 0.049223 0.5
5 2 0.1 9.82496e-05 0.5
6 2 0.125 0.049223 0.5
7 2 0.15 9.82496e-05 0.5
8 2 0.175 0.049223 0.5
9 2 0.2 9.82496e-05 0.5
10 2 0.225 0.049223 0.5
11 2 0.25 9.82496e-05 0.5
12 2 0.275 0.049223 0.5
13 2 0.3 9.82496e-05 0.5
14 2 0.325 0.049223 0.5
15 2 0.35 9.82496e-05 0.5
16 2 0.375 0.049223 0.5
17 2 0.4 9.82496e-05 0.5
18 2 0.425 0.049223 0.5
19 2 0.45 9.82496e-05 0.5
20 2 0.475 0.049223 0.5
21 2 0 0.0983478 0.5
23 2 0.05 0.0983478 0.5
25 2 0.1 0.0983478 0.5
27 2 0.15 0.0983478 0.5
29 2 0.2 0.0983478 0.5
31 2 0.25 0.0983478 0.5
33 2 0.3 0.0983478 0.5
35 2 0.35 0.0983478 0.5
37 2 0.4 0.0983478 0.5
39 2 0.45 0.0983478 0.5
22 1 0.0269762 0.146424 0.5
100 1 0.474715 0.43818 0.5
43 1 0.052686 0.195728 0.5
24 1 0.0761213 0.148782 0.5
45 1 0.101536 0.192861 0.5
26 1 0.124151 0.146059 0.5
28 1 0.179815 0.144718 0.5
47 1 0.149874 0.196931 0.5
30 1 0.230029 0.149905 0.5
49 1 0.199258 0.196838 0.5
32 1 0.276914 0.149598 0.5
51 1 0.249168 0.199831 0.5
53 1 0.302598 0.198082 0.5
34 1 0.327098 0.145147 0.5
55 1 0.352881 0.193181 0.5
36 1 0.375879 0.142928 0.5
38 1 0.426288 0.143171 0.5
57 1 0.403954 0.19153 0.5
40 1 0.478072 0.148598 0.5
59 1 0.449399 0.19081 0.5
42 1 0.026242 0.242799 0.5
44 1 0.0739009 0.242986 0.5
46 1 0.123766 0.244563 0.5
48 1 0.171663 0.243707 0.5
50 1 0.22434 0.248539 0.5
52 1 0.27977 0.24324 0.5
54 1 0.330423 0.244611 0.5
56 1 0.377448 0.241 0.5
58 1 0.427798 0.241242 0.5
60 1 0.476313 0.244689 0.5
98 1 0.424659 0.441956 0.5
62 1 0.0247887 0.339722 0.5
63 1 0.048728 0.290727 0.5
64 1 0.0763627 0.343085 0.5
65 1 0.10162 0.293461 0.5
66 1 0.126756 0.347366 0.5
67 1 0.149678 0.295726 0.5
68 1 0.17402 0.346447 0.5
69 1 0.200708 0.296015 0.5
70 1 0.227159 0.341372 0.5
71 1 0.255268 0.292942 0.5
72 1 0.276798 0.344978 0.5
73 1 0.303084 0.293046 0.5
74 1 0.327158 0.345075 0.5
75 1 0.353728 0.292001 0.5
76 1 0.375562 0.338544 0.5
77 1 0.400786 0.29152 0.5
78 1 0.422836 0.344273 0.5
79 1 0.449822 0.291935 0.5
80 1 0.474148 0.344493 0.5
96 1 0.371038 0.445729 0.5
83 1 0.0547361 0.388642 0.5
85 1 0.107859 0.394958 0.5
87 1 0.154743 0.399756 0.5
89 1 0.20165 0.391212 0.5
91 1 0.253462 0.394191 0.5
93 1 0.29956 0.395704 0.5
95 1 0.348878 0.39506 0.5
97 1 0.395806 0.391882 0.5
99 1 0.44813 0.39492 0.5
82 1 0.0280565 0.438389 0.5
84 1 0.0802653 0.440498 0.5
86 1 0.128176 0.450648 0.5
88 1 0.177128 0.44833 0.5
90 1 0.223847 0.438383 0.5
92 1 0.275904 0.447105 0.5
94 1 0.323102 0.44391 0.5
311 1 0.500401 0.486321 0.5
103 1 0.0512281 0.488819 0.5
105 1 0.0988305 0.494539 0.5
107 1 0.150831 0.497733 0.5
291 1 0.498457 0.392936 0.5
113 1 0.297577 0.492033 0.5
115 1 0.349134 0.49537 0.5
117 1 0.399626 0.490918 0.5
119 1 0.448191 0.491885 0.5
81 1 0.00319822 0.38804 0.5
109 1 0.199851 0.498533 0.5
111 1 0.248905 0.493203 0.5
101 1 0.00179396 0.488336 0.5
41 1 0.000862796 0.193095 0.5
61 1 0.00400116 0.294399 0.5
141 1 -0.00153414 0.689053 0.5
102 1 0.0243524 0.537888 0.5
331 1 0.495875 0.583414 0.5
104 1 0.072875 0.538497 0.5
196 1 0.374452 0.932202 0.5
106 1 0.122964 0.544921 0.5
208 1 0.348234 0.988746 0.5
108 1 0.176421 0.546457 0.5
194 1 0.326389 0.937958 0.5
110 1 0.224355 0.545743 0.5
204 1 0.142471 0.995041 0.5
112 1 0.271875 0.540913 0.5
207 1 0.29739 0.986478 0.5
114 1 0.325442 0.542742 0.5
206 1 0.245114 0.982108 0.5
116 1 0.375084 0.53698 0.5
192 1 0.274124 0.93721 0.5
118 1 0.424086 0.539827 0.5
205 1 0.198436 0.986981 0.5
120 1 0.474961 0.535925 0.5
210 1 0.44966 0.988389 0.5
123 1 0.0476112 0.58786 0.5
125 1 0.0986529 0.589887 0.5
127 1 0.151161 0.592349 0.5
129 1 0.198883 0.596436 0.5
131 1 0.248383 0.594669 0.5
133 1 0.297634 0.58785 0.5
135 1 0.349777 0.588952 0.5
137 1 0.398207 0.588526 0.5
139 1 0.447307 0.585945 0.5
122 1 0.0225909 0.640149 0.5
200 1 0.482413 0.934149 0.5
143 1 0.0493821 0.68921 0.5
124 1 0.0752022 0.639188 0.5
145 1 0.0989077 0.689963 0.5
126 1 0.120277 0.641852 0.5
128 1 0.172562 0.642577 0.5
147 1 0.146406 0.693083 0.5
130 1 0.22152 0.645574 0.5
149 1 0.19354 0.690113 0.5
132 1 0.277687 0.640615 0.5
151 1 0.251631 0.690141 0.5
153 1 0.300543 0.693029 0.5
134 1 0.325276 0.638472 0.5
155 1 0.351017 0.691174 0.5
136 1 0.376161 0.638703 0.5
138 1 0.424699 0.63858 0.5
157 1 0.400932 0.688241 0.5
140 1 0.471465 0.631409 0.5
159 1 0.451678 0.685397 0.5
142 1 0.0232969 0.73899 0.5
144 1 0.0749923 0.73779 0.5
146 1 0.121542 0.741727 0.5
148 1 0.172305 0.74442 0.5
150 1 0.223475 0.735313 0.5
152 1 0.272723 0.743045 0.5
154 1 0.329088 0.743027 0.5
156 1 0.380609 0.737008 0.5
158 1 0.430461 0.733557 0.5
160 1 0.481541 0.732903 0.5
190 1 0.220452 0.935389 0.5
162 1 0.0217081 0.839014 0.5
163 1 0.0461091 0.786545 0.5
164 1 0.0717908 0.836356 0.5
165 1 0.0946614 0.785962 0.5
166 1 0.120005 0.840827 0.5
167 1 0.145485 0.791267 0.5
168 1 0.17004 0.842745 0.5
169 1 0.196259 0.793259 0.5
170 1 0.220211 0.843426 0.5
171 1 0.246096 0.787716 0.5
172 1 0.26856 0.840704 0.5
173 1 0.302935 0.789786 0.5
174 1 0.32026 0.838418 0.5
175 1 0.355914 0.791697 0.5
176 1 0.376045 0.841845 0.5
177 1 0.407516 0.784491 0.5
178 1 0.430448 0.832568 0.5
179 1 0.457125 0.784326 0.5
180 1 0.477466 0.834961 0.5
209 1 0.397121 0.978626 0.5
183 1 0.0459547 0.891912 0.5
185 1 0.0938963 0.888467 0.5
187 1 0.14367 0.88754 0.5
189 1 0.192559 0.891856 0.5
191 1 0.247276 0.890476 0.5
193 1 0.297239 0.888802 0.5
195 1 0.349308 0.887637 0.5
197 1 0.406391 0.885356 0.5
199 1 0.452642 0.885699 0.5
182 1 0.0192736 0.939606 0.5
198 1 0.423807 0.935211 0.5
202 1 0.0386537 0.990617 0.5
184 1 0.0672599 0.944189 0.5
203 1 0.0871423 0.997949 0.5
186 1 0.117395 0.938771 0.5
188 1 0.168716 0.942439 0.5
211 2 0.5 9.82496e-05 0.5
212 2 0.525 0.049223 0.5
213 2 0.55 9.82496e-05 0.5
214 2 0.575 0.049223 0.5
215 2 0.6 9.82496e-05 0.5
216 2 0.625 0.049223 0.5
217 2 0.65 9.82496e-05 0.5
218 2 0.675 0.049223 0.5
219 2 0.7 9.82496e-05 0.5
220 2 0.725 0.049223 0.5
221 2 0.75 9.82496e-05 0.5
222 2 0.775 0.049223 0.5
223 2 0.8 9.82496e-05 0.5
224 2 0.825 0.049223 0.5
225 2 0.85 9.82496e-05 0.5
226 2 0.875 0.049223 0.5
227 2 0.9 9.82496e-05 0.5
228 2 0.925 0.049223 0.5
229 2 0.95 9.82496e-05 0.5
230 2 0.975 0.049223 0.5
231 2 0.5 0.0983478 0.5
233 2 0.55 0.0983478 0.5
235 2 0.6 0.0983478 0.5
237 2 0.65 0.0983478 0.5
239 2 0.7 0.0983478 0.5
241 2 0.75 0.0983478 0.5
243 2 0.8 0.0983478 0.5
245 2 0.85 0.0983478 0.5
247 2 0.9 0.0983478 0.5
249 2 0.95 0.0983478 0.5
232 1 0.527839 0.147218 0.5
251 1 0.503457 0.197473 0.5
253 1 0.552696 0.199227 0.5
234 1 0.5782 0.145261 0.5
255 1 0.603013 0.197482 0.5
236 1 0.62627 0.145289 0.5
238 1 0.674369 0.144967 0.5
257 1 0.650914 0.197409 0.5
240 1 0.725214 0.143826 0.5
259 1 0.699735 0.194953 0.5
242 1 0.772 0.148129 0.5
261 1 0.747853 0.197063 0.5
263 1 0.796701 0.196018 0.5
244 1 0.82164 0.147866 0.5
265 1 0.844966 0.196212 0.5
246 1 0.870255 0.150195 0.5
248 1 0.923862 0.147682 0.5
267 1 0.895346 0.197263 0.5
250 1 0.973886 0.147712 0.5
269 1 0.949341 0.19553 0.5
252 1 0.523939 0.247448 0.5
254 1 0.576785 0.247659 0.5
256 1 0.624523 0.244634 0.5
258 1 0.676369 0.247594 0.5
260 1 0.723374 0.245829 0.5
262 1 0.771014 0.246057 0.5
264 1 0.819437 0.247575 0.5
266 1 0.873981 0.248588 0.5
268 1 0.925157 0.24624 0.5
270 1 0.975031 0.241365 0.5
317 1 0.651431 0.492347 0.5
272 1 0.526081 0.345586 0.5
273 1 0.551592 0.296342 0.5
274 1 0.57624 0.345651 0.5
275 1 0.601749 0.296727 0.5
276 1 0.62729 0.348805 0.5
277 1 0.65228 0.297039 0.5
278 1 0.674892 0.347708 0.5
279 1 0.69983 0.294692 0.5
280 1 0.725145 0.344438 0.5
281 1 0.75019 0.296327 0.5
282 1 0.778843 0.347219 0.5
283 1 0.797186 0.297028 0.5
284 1 0.825047 0.341998 0.5
285 1 0.845993 0.293003 0.5
286 1 0.875987 0.338624 0.5
287 1 0.905384 0.295508 0.5
288 1 0.930216 0.34341 0.5
289 1 0.953525 0.290757 0.5
290 1 0.976857 0.342197 0.5
327 1 0.901647 0.487237 0.5
293 1 0.551837 0.392384 0.5
295 1 0.604297 0.396573 0.5
297 1 0.652806 0.400178 0.5
299 1 0.705463 0.396309 0.5
301 1 0.753323 0.401636 0.5
303 1 0.798325 0.398703 0.5
305 1 0.848026 0.39171 0.5
307 1 0.898678 0.386512 0.5
309 1 0.953336 0.391268 0.5
292 1 0.526803 0.439102 0.5
294 1 0.575755 0.442237 0.5
296 1 0.62477 0.44683 0.5
298 1 0.677337 0.444621 0.5
300 1 0.728201 0.447776 0.5
302 1 0.779933 0.447332 0.5
304 1 0.827558 0.44533 0.5
306 1 0.87371 0.437872 0.5
308 1 0.925272 0.439842 0.5
310 1 0.977098 0.441723 0.5
319 1 0.701896 0.492347 0.5
271 1 0.502133 0.300268 0.5
329 1 0.949982 0.486924 0.5
325 1 0.851832 0.490965 0.5
313 1 0.54815 0.490651 0.5
315 1 0.600124 0.491839 0.5
321 1 0.750837 0.49618 0.5
323 1 0.801718 0.494933 0.5
201 1 0.991395 0.98614 0.5
312 1 0.520377 0.535371 0.5
181 1 0.99502 0.885848 0.5
314 1 0.571445 0.539058 0.5
418 1 0.848086 1.00019 0.5
316 1 0.626301 0.545471 0.5
417 1 0.79789 0.981589 0.5
318 1 0.675956 0.538501 0.5
351 1 0.501646 0.683759 0.5
320 1 0.725668 0.538883 0.5
121 1 0.999737 0.588511 0.5
322 1 0.777075 0.54159 0.5
419 1 0.896158 0.996977 0.5
324 1 0.826152 0.54215 0.5
408 1 0.917967 0.941284 0.5
326 1 0.876788 0.540074 0.5
404 1 0.823499 0.930799 0.5
328 1 0.92693 0.535625 0.5
406 1 0.869884 0.9489 0.5
330 1 0.977213 0.536438 0.5
161 1 0.997668 0.789105 0.5
333 1 0.543162 0.583036 0.5
335 1 0.596624 0.58754 0.5
337 1 0.650535 0.59113 0.5
339 1 0.700646 0.587938 0.5
341 1 0.751659 0.587363 0.5
343 1 0.800907 0.588245 0.5
345 1 0.852091 0.590951 0.5
347 1 0.900435 0.588631 0.5
349 1 0.951189 0.585514 0.5
332 1 0.524561 0.63623 0.5
420 1 0.943761 0.987676 0.5
353 1 0.55149 0.682334 0.5
334 1 0.573769 0.635117 0.5
355 1 0.600328 0.683129 0.5
336 1 0.620682 0.636053 0.5
338 1 0.678861 0.639305 0.5
357 1 0.650844 0.682864 0.5
340 1 0.727614 0.638752 0.5
359 1 0.704602 0.685562 0.5
342 1 0.777848 0.64076 0.5
361 1 0.753575 0.687009 0.5
363 1 0.80191 0.687713 0.5
344 1 0.825266 0.636563 0.5
365 1 0.850563 0.685536 0.5
346 1 0.873439 0.637357 0.5
348 1 0.925701 0.637389 0.5
367 1 0.900451 0.684658 0.5
350 1 0.974836 0.636108 0.5
369 1 0.949669 0.685205 0.5
352 1 0.529686 0.736291 0.5
354 1 0.577712 0.734044 0.5
356 1 0.625198 0.732157 0.5
358 1 0.674041 0.730882 0.5
360 1 0.730494 0.735382 0.5
362 1 0.777032 0.733276 0.5
364 1 0.826652 0.738012 0.5
366 1 0.873357 0.739123 0.5
368 1 0.922577 0.733513 0.5
370 1 0.970021 0.737528 0.5
371 1 0.504577 0.783609 0.5
372 1 0.527803 0.830976 0.5
373 1 0.553374 0.78416 0.5
374 1 0.575915 0.83352 0.5
375 1 0.601064 0.783409 0.5
376 1 0.624111 0.830435 0.5
377 1 0.650977 0.78222 0.5
378 1 0.679266 0.830009 0.5
379 1 0.70147 0.783754 0.5
380 1 0.725811 0.83052 0.5
381 1 0.752635 0.782728 0.5
382 1 0.775634 0.834362 0.5
383 1 0.801058 0.788352 0.5
384 1 0.825716 0.833483 0.5
385 1 0.852096 0.786325 0.5
386 1 0.874121 0.836593 0.5
387 1 0.9006 0.784795 0.5
388 1 0.922086 0.834066 0.5
389 1 0.948777 0.784913 0.5
390 1 0.970654 0.837227 0.5
391 1 0.501639 0.88361 0.5
393 1 0.551806 0.880138 0.5
395 1 0.603378 0.881297 0.5
397 1 0.652787 0.883019 0.5
399 1 0.701352 0.888051 0.5
401 1 0.750549 0.883045 0.5
403 1 0.800991 0.883463 0.5
405 1 0.850685 0.885635 0.5
407 1 0.897457 0.889892 0.5
409 1 0.946236 0.884862 0.5
392 1 0.532835 0.944687 0.5
410 1 0.966341 0.936402 0.5
412 1 0.557912 0.993314 0.5
394 1 0.578515 0.926291 0.5
413 1 0.601144 0.974154 0.5
396 1 0.628873 0.92992 0.5
398 1 0.678056 0.93745 0.5
414 1 0.64841 0.983577 0.5
400 1 0.728248 0.937159 0.5
415 1 0.701737 0.982812 0.5
402 1 0.774333 0.931749 0.5
416 1 0.751388 0.983122 0.5
411 1 0.502315 0.987047 0.5
ITEM: TIMESTEP
500
ITEM: NUMBER OF ATOMS
420
ITEM: BOX BOUNDS pp ss pp
0.0000000000000000e+00 2.2653923264628304e+01
-1.9618873042551413e-03 1.9813358195416107e+01
-2.8317404080785380e-01 2.8317404080785380e-01
ITEM: ATOMS id type xs ys zs
1 2 0 9.90086e-05 0.5
2 2 0.025 0.0496033 0.5
3 2 0.05 9.90086e-05 0.5
4 2 0.075 0.0496033 0.5
5 2 0.1 9.90086e-05 0.5
6 2 0.125 0.0496033 0.5
7 2 0.15 9.90086e-05 0.5
8 2 0.175 0.0496033 0.5
9 2 0.2 9.90086e-05 0.5
10 2 0.225 0.0496033 0.5
11 2 0.25 9.90086e-05 0.5
12 2 0.275 0.0496033 0.5
13 2 0.3 9.90086e-05 0.5
14 2 0.325 0.0496033 0.5
15 2 0.35 9.90086e-05 0.5
16 2 0.375 0.0496033 0.5
17 2 0.4 9.90086e-05 0.5
18 2 0.425 0.0496033 0.5
19 2 0.45 9.90086e-05 0.5
20 2 0.475 0.0496033 0.5
21 2 0 0.0991076 0.5
23 2 0.05 0.0991076 0.5
25 2 0.1 0.0991076 0.5
27 2 0.15 0.0991076 0.5
29 2 0.2 0.0991076 0.5
31 2 0.25 0.0991076 0.5
33 2 0.3 0.0991076 0.5
35 2 0.35 0.0991076 0.5
37 2 0.4 0.0991076 0.5
39 2 0.45 0.0991076 0.5
22 1 0.0247903 0.150831 0.5
100 1 0.475377 0.447319 0.5
43 1 0.0529152 0.201719 0.5
24 1 0.0762729 0.149224 0.5
45 1 0.100154 0.197432 0.5
26 1 0.123136 0.147994 0.5
28 1 0.171585 0.145447 0.5
47 1 0.149202 0.197992 0.5
30 1 0.227186 0.146752 0.5
49 1 0.197789 0.191525 0.5
32 1 0.275668 0.14818 0.5
51 1 0.249142 0.197684 0.5
53 1 0.298589 0.198166 0.5
34 1 0.325628 0.146496 0.5
55 1 0.347757 0.19898 0.5
36 1 0.37337 0.15134 0.5
38 1 0.423407 0.148668 0.5
57 1 0.396468 0.199589 0.5
40 1 0.472358 0.146173 0.5
59 1 0.446552 0.198927 0.5
42 1 0.0248073 0.247028 0.5
44 1 0.0757596 0.251363 0.5
46 1 0.127265 0.245799 0.5
48 1 0.175756 0.249059 0.5
50 1 0.224327 0.244376 0.5
52 1 0.275293 0.24918 0.5
54 1 0.322528 0.247232 0.5
56 1 0.372554 0.249553 0.5
58 1 0.422467 0.247176 0.5
60 1 0.470204 0.246918 0.5
98 1 0.42717 0.443681 0.5
62 1 0.0248509 0.348333 0.5
63 1 0.0500194 0.301566 0.5
64 1 0.0749617 0.346292 0.5
65 1 0.0990862 0.298688 0.5
66 1 0.123741 0.348794 0.5
67 1 0.15025 0.298115 0.5
68 1 0.173398 0.343988 0.5
69 1 0.200417 0.298304 0.5
70 1 0.226288 0.347189 0.5
71 1 0.250337 0.297101 0.5
72 1 0.273284 0.348418 0.5
73 1 0.297206 0.299546 0.5
74 1 0.320753 0.348627 0.5
75 1 0.346833 0.297112 0.5
76 1 0.373555 0.346168 0.5
77 1 0.401652 0.298889 0.5
78 1 0.42405 0.349495 0.5
79 1 0.450577 0.298165 0.5
80 1 0.476555 0.347346 0.5
96 1 0.378338 0.445558 0.5
83 1 0.0506716 0.394579 0.5
85 1 0.0991728 0.396262 0.5
87 1 0.150415 0.39721 0.5
89 1 0.199115 0.397282 0.5
91 1 0.251977 0.396251 0.5
93 1 0.301007 0.399841 0.5
95 1 0.352774 0.394307 0.5
97 1 0.400066 0.395994 0.5
99 1 0.451282 0.398392 0.5
82 1 0.0268638 0.445775 0.5
84 1 0.0759923 0.44403 0.5
86 1 0.122196 0.447387 0.5
88 1 0.172566 0.444457 0.5
90 1 0.224126 0.445808 0.5
92 1 0.276708 0.446096 0.5
94 1 0.328131 0.443696 0.5
101 1 0.00302072 0.498377 0.5
103 1 0.0529238 0.492663 0.5
105 1 0.0994961 0.497856 0.5
107 1 0.150358 0.495321 0.5
111 1 0.247881 0.494159 0.5
113 1 0.302491 0.494743 0.5
115 1 0.351911 0.493583 0.5
117 1 0.402928 0.496132 0.5
41 1 0.00224136 0.198733 0.5
81 1 0.00294384 0.398683 0.5
109 1 0.200245 0.495001 0.5
251 1 0.496514 0.197252 0.5
291 1 0.499161 0.395284 0.5
188 1 0.172963 0.949037 0.5
102 1 0.0256297 0.545395 0.5
141 1 0.00302046 0.697895 0.5
104 1 0.0755871 0.547287 0.5
196 1 0.374823 0.941306 0.5
106 1 0.124512 0.545932 0.5
208 1 0.347942 0.994543 0.5
108 1 0.17519 0.544862 0.5
194 1 0.325757 0.943406 0.5
110 1 0.223619 0.547667 0.5
204 1 0.150107 0.997906 0.5
112 1 0.275714 0.540365 0.5
207 1 0.299048 0.992889 0.5
114 1 0.32745 0.546452 0.5
206 1 0.246815 0.996837 0.5
116 1 0.375246 0.543735 0.5
192 1 0.277925 0.941979 0.5
118 1 0.427159 0.548094 0.5
205 1 0.197508 0.998273 0.5
120 1 0.478742 0.549169 0.5
210 1 0.449429 0.986901 0.5
123 1 0.0512828 0.594648 0.5
125 1 0.103004 0.594948 0.5
127 1 0.150353 0.594483 0.5
129 1 0.198268 0.59576 0.5
131 1 0.251705 0.594338 0.5
133 1 0.300874 0.591651 0.5
135 1 0.348809 0.597275 0.5
137 1 0.401784 0.595607 0.5
139 1 0.449373 0.598106 0.5
122 1 0.0269458 0.650841 0.5
200 1 0.473929 0.94004 0.5
143 1 0.0534989 0.698571 0.5
124 1 0.0796303 0.642817 0.5
145 1 0.0995929 0.697136 0.5
126 1 0.129257 0.646321 0.5
128 1 0.175957 0.645694 0.5
147 1 0.151029 0.698262 0.5
130 1 0.223552 0.645889 0.5
149 1 0.199278 0.694687 0.5
132 1 0.274652 0.642738 0.5
151 1 0.248702 0.693076 0.5
153 1 0.299515 0.696514 0.5
134 1 0.322625 0.646938 0.5
155 1 0.349418 0.696231 0.5
136 1 0.373409 0.644102 0.5
138 1 0.424549 0.645937 0.5
157 1 0.398353 0.697581 0.5
140 1 0.475007 0.646734 0.5
159 1 0.44858 0.699876 0.5
142 1 0.0254829 0.746759 0.5
144 1 0.0751904 0.748316 0.5
146 1 0.126785 0.747124 0.5
148 1 0.174732 0.747919 0.5
150 1 0.224638 0.747778 0.5
152 1 0.273142 0.743095 0.5
154 1 0.32459 0.749764 0.5
156 1 0.371998 0.746804 0.5
158 1 0.421574 0.746308 0.5
160 1 0.472676 0.749987 0.5
190 1 0.227083 0.943954 0.5
162 1 0.0229867 0.847381 0.5
163 1 0.0498057 0.794392 0.5
164 1 0.0727908 0.846581 0.5
165 1 0.10145 0.794948 0.5
166 1 0.123713 0.843826 0.5
167 1 0.149929 0.798882 0.5
168 1 0.174212 0.848405 0.5
169 1 0.199276 0.796721 0.5
170 1 0.22485 0.849454 0.5
171 1 0.247202 0.797622 0.5
172 1 0.273432 0.846432 0.5
173 1 0.298657 0.797803 0.5
174 1 0.322752 0.845577 0.5
175 1 0.349153 0.797226 0.5
176 1 0.372818 0.843805 0.5
177 1 0.399373 0.796388 0.5
178 1 0.4223 0.842851 0.5
179 1 0.447453 0.796544 0.5
180 1 0.470716 0.845998 0.5
209 1 0.399011 0.992684 0.5
183 1 0.0496039 0.89942 0.5
185 1 0.100286 0.895631 0.5
187 1 0.149558 0.897582 0.5
189 1 0.20038 0.899659 0.5
191 1 0.250236 0.897661 0.5
193 1 0.301252 0.895697 0.5
195 1 0.348773 0.895802 0.5
197 1 0.398311 0.89294 0.5
199 1 0.446815 0.893901 0.5
182 1 0.0231719 0.946371 0.5
198 1 0.422674 0.940792 0.5
202 1 0.0466637 0.994402 0.5
184 1 0.0742335 0.947554 0.5
203 1 0.0987009 0.998833 0.5
186 1 0.124936 0.95009 0.5
411 1 0.497869 0.986395 0.5
391 1 0.497087 0.891575 0.5
351 1 0.498444 0.696115 0.5
121 1 0.00266901 0.59888 0.5
371 1 0.496076 0.79695 0.5
119 1 0.451896 0.502232 0.5
211 2 0.5 9.90086e-05 0.5
212 2 0.525 0.0496033 0.5
213 2 0.55 9.90086e-05 0.5
214 2 0.575 0.0496033 0.5
215 2 0.6 9.90086e-05 0.5
216 2 0.625 0.0496033 0.5
217 2 0.65 9.90086e-05 0.5
218 2 0.675 0.0496033 0.5
219 2 0.7 9.90086e-05 0.5
220 2 0.725 0.0496033 0.5
221 2 0.75 9.90086e-05 0.5
222 2 0.775 0.0496033 0.5
223 2 0.8 9.90086e-05 0.5
224 2 0.825 0.0496033 0.5
225 2 0.85 9.90086e-05 0.5
226 2 0.875 0.0496033 0.5
227 2 0.9 9.90086e-05 0.5
228 2 0.925 0.0496033 0.5
229 2 0.95 9.90086e-05 0.5
230 2 0.975 0.0496033 0.5
231 2 0.5 0.0991076 0.5
233 2 0.55 0.0991076 0.5
235 2 0.6 0.0991076 0.5
237 2 0.65 0.0991076 0.5
239 2 0.7 0.0991076 0.5
241 2 0.75 0.0991076 0.5
243 2 0.8 0.0991076 0.5
245 2 0.85 0.0991076 0.5
247 2 0.9 0.0991076 0.5
249 2 0.95 0.0991076 0.5
232 1 0.523658 0.146668 0.5
311 1 0.499316 0.496205 0.5
253 1 0.549073 0.197509 0.5
234 1 0.575187 0.148829 0.5
255 1 0.60297 0.196438 0.5
236 1 0.625871 0.147039 0.5
238 1 0.676241 0.147043 0.5
257 1 0.652776 0.195028 0.5
240 1 0.728456 0.147378 0.5
259 1 0.704632 0.197936 0.5
242 1 0.777594 0.146765 0.5
261 1 0.754467 0.196625 0.5
263 1 0.801697 0.195728 0.5
244 1 0.825803 0.14777 0.5
265 1 0.852896 0.195877 0.5
246 1 0.874481 0.147503 0.5
248 1 0.92561 0.148673 0.5
267 1 0.901722 0.198411 0.5
250 1 0.976011 0.149029 0.5
269 1 0.950842 0.197875 0.5
252 1 0.525086 0.244899 0.5
254 1 0.575379 0.243303 0.5
256 1 0.624195 0.244016 0.5
258 1 0.676046 0.242404 0.5
260 1 0.729268 0.244307 0.5
262 1 0.779218 0.245073 0.5
264 1 0.828605 0.244318 0.5
266 1 0.875976 0.247519 0.5
268 1 0.924544 0.2479 0.5
270 1 0.976931 0.245685 0.5
317 1 0.650152 0.490854 0.5
272 1 0.524959 0.345678 0.5
273 1 0.548827 0.296008 0.5
274 1 0.574715 0.344683 0.5
275 1 0.596571 0.293556 0.5
276 1 0.623747 0.343702 0.5
277 1 0.649173 0.297588 0.5
278 1 0.672656 0.348415 0.5
279 1 0.698328 0.291736 0.5
280 1 0.725989 0.344364 0.5
281 1 0.754765 0.292489 0.5
282 1 0.775757 0.345953 0.5
283 1 0.802524 0.295403 0.5
284 1 0.827111 0.343869 0.5
285 1 0.851524 0.294246 0.5
286 1 0.87778 0.344931 0.5
287 1 0.900736 0.297258 0.5
288 1 0.924997 0.347246 0.5
289 1 0.950967 0.297121 0.5
290 1 0.97811 0.351357 0.5
327 1 0.901004 0.493851 0.5
293 1 0.548235 0.393969 0.5
295 1 0.597312 0.394202 0.5
297 1 0.644565 0.392955 0.5
299 1 0.699608 0.390392 0.5
301 1 0.748627 0.392592 0.5
303 1 0.802151 0.394501 0.5
305 1 0.853076 0.395027 0.5
307 1 0.899638 0.394148 0.5
309 1 0.952061 0.399865 0.5
292 1 0.524283 0.443369 0.5
294 1 0.573051 0.444636 0.5