ITEM: TIMESTEP
0
ITEM: NUMBER OF ATOMS
420
ITEM: BOX BOUNDS pp ss pp
0.0000000000000000e+00 2.2653923264628304e+01
-1.9618873042551413e-03 1.9620834929855668e+01
-2.8317404080785380e-01 2.8317404080785380e-01
ITEM: ATOMS id type xs ys zs
1 2 0 9.998e-05 0.5
2 2 0.025 0.05009 0.5
3 2 0.05 9.998e-05 0.5
4 2 0.075 0.05009 0.5
5 2 0.1 9.998e-05 0.5
6 2 0.125 0.05009 0.5
7 2 0.15 9.998e-05 0.5
8 2 0.175 0.05009 0.5
9 2 0.2 9.998e-05 0.5
10 2 0.225 0.05009 0.5
11 2 0.25 9.998e-05 0.5
12 2 0.275 0.05009 0.5
13 2 0.3 9.998e-05 0.5
14 2 0.325 0.05009 0.5
15 2 0.35 9.998e-05 0.5
16 2 0.375 0.05009 0.5
17 2 0.4 9.998e-05 0.5
18 2 0.425 0.05009 0.5
19 2 0.45 9.998e-05 0.5
20 2 0.475 0.05009 0.5
21 2 0 0.10008 0.5
23 2 0.05 0.10008 0.5
25 2 0.1 0.10008 0.5
27 2 0.15 0.10008 0.5
29 2 0.2 0.10008 0.5
31 2 0.25 0.10008 0.5
33 2 0.3 0.10008 0.5
35 2 0.35 0.10008 0.5
37 2 0.4 0.10008 0.5
39 2 0.45 0.10008 0.5
22 1 0.025 0.15007 0.5
41 1 0 0.20006 0.5
43 1 0.05 0.20006 0.5
24 1 0.075 0.15007 0.5
45 1 0.1 0.20006 0.5
26 1 0.125 0.15007 0.5
28 1 0.175 0.15007 0.5
47 1 0.15 0.20006 0.5
30 1 0.225 0.15007 0.5
49 1 0.2 0.20006 0.5
32 1 0.275 0.15007 0.5
51 1 0.25 0.20006 0.5
53 1 0.3 0.20006 0.5
34 1 0.325 0.15007 0.5
55 1 0.35 0.20006 0.5
36 1 0.375 0.15007 0.5
38 1 0.425 0.15007 0.5
57 1 0.4 0.20006 0.5
40 1 0.475 0.15007 0.5
59 1 0.45 0.20006 0.5
42 1 0.025 0.25005 0.5
44 1 0.075 0.25005 0.5
46 1 0.125 0.25005 0.5
48 1 0.175 0.25005 0.5
50 1 0.225 0.25005 0.5
52 1 0.275 0.25005 0.5
54 1 0.325 0.25005 0.5
56 1 0.375 0.25005 0.5
58 1 0.425 0.25005 0.5
60 1 0.475 0.25005 0.5
61 1 0 0.30004 0.5
62 1 0.025 0.35003 0.5
63 1 0.05 0.30004 0.5
64 1 0.075 0.35003 0.5
65 1 0.1 0.30004 0.5
66 1 0.125 0.35003 0.5
67 1 0.15 0.30004 0.5
68 1 0.175 0.35003 0.5
69 1 0.2 0.30004 0.5
70 1 0.225 0.35003 0.5
71 1 0.25 0.30004 0.5
72 1 0.275 0.35003 0.5
73 1 0.3 0.30004 0.5
74 1 0.325 0.35003 0.5
75 1 0.35 0.30004 0.5
76 1 0.375 0.35003 0.5
77 1 0.4 0.30004 0.5
78 1 0.425 0.35003 0.5
79 1 0.45 0.30004 0.5
80 1 0.475 0.35003 0.5
81 1 0 0.40002 0.5
83 1 0.05 0.40002 0.5
85 1 0.1 0.40002 0.5
87 1 0.15 0.40002 0.5
89 1 0.2 0.40002 0.5
91 1 0.25 0.40002 0.5
93 1 0.3 0.40002 0.5
95 1 0.35 0.40002 0.5
97 1 0.4 0.40002 0.5
99 1 0.45 0.40002 0.5
82 1 0.025 0.45001 0.5
84 1 0.075 0.45001 0.5
86 1 0.125 0.45001 0.5
88 1 0.175 0.45001 0.5
90 1 0.225 0.45001 0.5
92 1 0.275 0.45001 0.5
94 1 0.325 0.45001 0.5
96 1 0.375 0.45001 0.5
98 1 0.425 0.45001 0.5
100 1 0.475 0.45001 0.5
101 1 0 0.5 0.5
102 1 0.025 0.54999 0.5
103 1 0.05 0.5 0.5
104 1 0.075 0.54999 0.5
105 1 0.1 0.5 0.5
106 1 0.125 0.54999 0.5
107 1 0.15 0.5 0.5
108 1 0.175 0.54999 0.5
109 1 0.2 0.5 0.5
110 1 0.225 0.54999 0.5
111 1 0.25 0.5 0.5
112 1 0.275 0.54999 0.5
113 1 0.3 0.5 0.5
114 1 0.325 0.54999 0.5
115 1 0.35 0.5 0.5
116 1 0.375 0.54999 0.5
117 1 0.4 0.5 0.5
118 1 0.425 0.54999 0.5
119 1 0.45 0.5 0.5
120 1 0.475 0.54999 0.5
121 1 0 0.59998 0.5
123 1 0.05 0.59998 0.5
125 1 0.1 0.59998 0.5
127 1 0.15 0.59998 0.5
129 1 0.2 0.59998 0.5
131 1 0.25 0.59998 0.5
133 1 0.3 0.59998 0.5
135 1 0.35 0.59998 0.5
137 1 0.4 0.59998 0.5
139 1 0.45 0.59998 0.5
122 1 0.025 0.64997 0.5
141 1 0 0.69996 0.5
143 1 0.05 0.69996 0.5
124 1 0.075 0.64997 0.5
145 1 0.1 0.69996 0.5
126 1 0.125 0.64997 0.5
128 1 0.175 0.64997 0.5
147 1 0.15 0.69996 0.5
130 1 0.225 0.64997 0.5
149 1 0.2 0.69996 0.5
132 1 0.275 0.64997 0.5
151 1 0.25 0.69996 0.5
153 1 0.3 0.69996 0.5
134 1 0.325 0.64997 0.5
155 1 0.35 0.69996 0.5
136 1 0.375 0.64997 0.5
138 1 0.425 0.64997 0.5
157 1 0.4 0.69996 0.5
140 1 0.475 0.64997 0.5
159 1 0.45 0.69996 0.5
142 1 0.025 0.74995 0.5
144 1 0.075 0.74995 0.5
146 1 0.125 0.74995 0.5
148 1 0.175 0.74995 0.5
150 1 0.225 0.74995 0.5
152 1 0.275 0.74995 0.5
154 1 0.325 0.74995 0.5
156 1 0.375 0.74995 0.5
158 1 0.425 0.74995 0.5
160 1 0.475 0.74995 0.5
161 1 0 0.79994 0.5
162 1 0.025 0.84993 0.5
163 1 0.05 0.79994 0.5
164 1 0.075 0.84993 0.5
165 1 0.1 0.79994 0.5
166 1 0.125 0.84993 0.5
167 1 0.15 0.79994 0.5
168 1 0.175 0.84993 0.5
169 1 0.2 0.79994 0.5
170 1 0.225 0.84993 0.5
171 1 0.25 0.79994 0.5
172 1 0.275 0.84993 0.5
173 1 0.3 0.79994 0.5
174 1 0.325 0.84993 0.5
175 1 0.35 0.79994 0.5
176 1 0.375 0.84993 0.5
177 1 0.4 0.79994 0.5
178 1 0.425 0.84993 0.5
179 1 0.45 0.79994 0.5
180 1 0.475 0.84993 0.5
181 1 0 0.89992 0.5
183 1 0.05 0.89992 0.5
185 1 0.1 0.89992 0.5
187 1 0.15 0.89992 0.5
189 1 0.2 0.89992 0.5
191 1 0.25 0.89992 0.5
193 1 0.3 0.89992 0.5
195 1 0.35 0.89992 0.5
197 1 0.4 0.89992 0.5
199 1 0.45 0.89992 0.5
182 1 0.025 0.94991 0.5
201 1 0 0.9999 0.5
202 1 0.05 0.9999 0.5
184 1 0.075 0.94991 0.5
203 1 0.1 0.9999 0.5
186 1 0.125 0.94991 0.5
188 1 0.175 0.94991 0.5
204 1 0.15 0.9999 0.5
190 1 0.225 0.94991 0.5
205 1 0.2 0.9999 0.5
192 1 0.275 0.94991 0.5
206 1 0.25 0.9999 0.5
207 1 0.3 0.9999 0.5
194 1 0.325 0.94991 0.5
208 1 0.35 0.9999 0.5
196 1 0.375 0.94991 0.5
198 1 0.425 0.94991 0.5
209 1 0.4 0.9999 0.5
200 1 0.475 0.94991 0.5
210 1 0.45 0.9999 0.5
211 2 0.5 9.998e-05 0.5
212 2 0.525 0.05009 0.5
213 2 0.55 9.998e-05 0.5
214 2 0.575 0.05009 0.5
215 2 0.6 9.998e-05 0.5
216 2 0.625 0.05009 0.5
217 2 0.65 9.998e-05 0.5
218 2 0.675 0.05009 0.5
219 2 0.7 9.998e-05 0.5
220 2 0.725 0.05009 0.5
221 2 0.75 9.998e-05 0.5
222 2 0.775 0.05009 0.5
223 2 0.8 9.998e-05 0.5
224 2 0.825 0.05009 0.5
225 2 0.85 9.998e-05 0.5
226 2 0.875 0.05009 0.5
227 2 0.9 9.998e-05 0.5
228 2 0.925 0.05009 0.5
229 2 0.95 9.998e-05 0.5
230 2 0.975 0.05009 0.5
231 2 0.5 0.10008 0.5
233 2 0.55 0.10008 0.5
235 2 0.6 0.10008 0.5
237 2 0.65 0.10008 0.5
239 2 0.7 0.10008 0.5
241 2 0.75 0.10008 0.5
243 2 0.8 0.10008 0.5
245 2 0.85 0.10008 0.5
247 2 0.9 0.10008 0.5
249 2 0.95 0.10008 0.5
232 1 0.525 0.15007 0.5
251 1 0.5 0.20006 0.5
253 1 0.55 0.20006 0.5
234 1 0.575 0.15007 0.5
255 1 0.6 0.20006 0.5
236 1 0.625 0.15007 0.5
238 1 0.675 0.15007 0.5
257 1 0.65 0.20006 0.5
240 1 0.725 0.15007 0.5
259 1 0.7 0.20006 0.5
242 1 0.775 0.15007 0.5
261 1 0.75 0.20006 0.5
263 1 0.8 0.20006 0.5
244 1 0.825 0.15007 0.5
265 1 0.85 0.20006 0.5
246 1 0.875 0.15007 0.5
248 1 0.925 0.15007 0.5
267 1 0.9 0.20006 0.5
250 1 0.975 0.15007 0.5
269 1 0.95 0.20006 0.5
252 1 0.525 0.25005 0.5
254 1 0.575 0.25005 0.5
256 1 0.625 0.25005 0.5
258 1 0.675 0.25005 0.5
260 1 0.725 0.25005 0.5
262 1 0.775 0.25005 0.5
264 1 0.825 0.25005 0.5
266 1 0.875 0.25005 0.5
268 1 0.925 0.25005 0.5
270 1 0.975 0.25005 0.5
271 1 0.5 0.30004 0.5
272 1 0.525 0.35003 0.5
273 1 0.55 0.30004 0.5
274 1 0.575 0.35003 0.5
275 1 0.6 0.30004 0.5
276 1 0.625 0.35003 0.5
277 1 0.65 0.30004 0.5
278 1 0.675 0.35003 0.5
279 1 0.7 0.30004 0.5
280 1 0.725 0.35003 0.5
281 1 0.75 0.30004 0.5
282 1 0.775 0.35003 0.5
283 1 0.8 0.30004 0.5
284 1 0.825 0.35003 0.5
285 1 0.85 0.30004 0.5
286 1 0.875 0.35003 0.5
287 1 0.9 0.30004 0.5
288 1 0.925 0.35003 0.5
289 1 0.95 0.30004 0.5
290 1 0.975 0.35003 0.5
291 1 0.5 0.40002 0.5
293 1 0.55 0.40002 0.5
295 1 0.6 0.40002 0.5
297 1 0.65 0.40002 0.5
299 1 0.7 0.40002 0.5
301 1 0.75 0.40002 0.5
303 1 0.8 0.40002 0.5
305 1 0.85 0.40002 0.5
307 1 0.9 0.40002 0.5
309 1 0.95 0.40002 0.5
292 1 0.525 0.45001 0.5
294 1 0.575 0.45001 0.5
296 1 0.625 0.45001 0.5
298 1 0.675 0.45001 0.5
300 1 0.725 0.45001 0.5
302 1 0.775 0.45001 0.5
304 1 0.825 0.45001 0.5
306 1 0.875 0.45001 0.5
308 1 0.925 0.45001 0.5
310 1 0.975 0.45001 0.5
311 1 0.5 0.5 0.5
312 1 0.525 0.54999 0.5
313 1 0.55 0.5 0.5
314 1 0.575 0.54999 0.5
315 1 0.6 0.5 0.5
316 1 0.625 0.54999 0.5
317 1 0.65 0.5 0.5
318 1 0.675 0.54999 0.5
319 1 0.7 0.5 0.5
320 1 0.725 0.54999 0.5
321 1 0.75 0.5 0.5
322 1 0.775 0.54999 0.5
323 1 0.8 0.5 0.5
324 1 0.825 0.54999 0.5
325 1 0.85 0.5 0.5
326 1 0.875 0.54999 0.5
327 1 0.9 0.5 0.5
328 1 0.925 0.54999 0.5
329 1 0.95 0.5 0.5
330 1 0.975 0.54999 0.5
331 1 0.5 0.59998 0.5
333 1 0.55 0.59998 0.5
335 1 0.6 0.59998 0.5
337 1 0.65 0.59998 0.5
339 1 0.7 0.59998 0.5
341 1 0.75 0.59998 0.5
343 1 0.8 0.59998 0.5
345 1 0.85 0.59998 0.5
347 1 0.9 0.59998 0.5
349 1 0.95 0.59998 0.5
332 1 0.525 0.64997 0.5
351 1 0.5 0.69996 0.5
353 1 0.55 0.69996 0.5
334 1 0.575 0.64997 0.5
355 1 0.6 0.69996 0.5
336 1 0.625 0.64997 0.5
338 1 0.675 0.64997 0.5
357 1 0.65 0.69996 0.5
340 1 0.725 0.64997 0.5
359 1 0.7 0.69996 0.5
342 1 0.775 0.64997 0.5
361 1 0.75 0.69996 0.5
363 1 0.8 0.69996 0.5
344 1 0.825 0.64997 0.5
365 1 0.85 0.69996 0.5
346 1 0.875 0.64997 0.5
348 1 0.925 0.64997 0.5
367 1 0.9 0.69996 0.5
350 1 0.975 0.64997 0.5
369 1 0.95 0.69996 0.5
352 1 0.525 0.74995 0.5
354 1 0.575 0.74995 0.5
356 1 0.625 0.74995 0.5
358 1 0.675 0.74995 0.5
360 1 0.725 0.74995 0.5
362 1 0.775 0.74995 0.5
364 1 0.825 0.74995 0.5
366 1 0.875 0.74995 0.5
368 1 0.925 0.74995 0.5
370 1 0.975 0.74995 0.5
371 1 0.5 0.79994 0.5
372 1 0.525 0.84993 0.5
373 1 0.55 0.79994 0.5
374 1 0.575 0.84993 0.5
375 1 0.6 0.79994 0.5
376 1 0.625 0.84993 0.5
377 1 0.65 0.79994 0.5
378 1 0.675 0.84993 0.5
379 1 0.7 0.79994 0.5
380 1 0.725 0.84993 0.5
381 1 0.75 0.79994 0.5
382 1 0.775 0.84993 0.5
383 1 0.8 0.79994 0.5
384 1 0.825 0.84993 0.5
385 1 0.85 0.79994 0.5
386 1 0.875 0.84993 0.5
387 1 0.9 0.79994 0.5
388 1 0.925 0.84993 0.5
389 1 0.95 0.79994 0.5
390 1 0.975 0.84993 0.5
391 1 0.5 0.89992 0.5
393 1 0.55 0.89992 0.5
395 1 0.6 0.89992 0.5
397 1 0.65 0.89992 0.5
399 1 0.7 0.89992 0.5
401 1 0.75 0.89992 0.5
403 1 0.8 0.89992 0.5
405 1 0.85 0.89992 0.5
407 1 0.9 0.89992 0.5
409 1 0.95 0.89992 0.5
392 1 0.525 0.94991 0.5
411 1 0.5 0.9999 0.5
412 1 0.55 0.9999 0.5
394 1 0.575 0.94991 0.5
413 1 0.6 0.9999 0.5
396 1 0.625 0.94991 0.5
398 1 0.675 0.94991 0.5
414 1 0.65 0.9999 0.5
400 1 0.725 0.94991 0.5
415 1 0.7 0.9999 0.5
402 1 0.775 0.94991 0.5
416 1 0.75 0.9999 0.5
417 1 0.8 0.9999 0.5
404 1 0.825 0.94991 0.5
418 1 0.85 0.9999 0.5
406 1 0.875 0.94991 0.5
408 1 0.925 0.94991 0.5
419 1 0.9 0.9999 0.5
410 1 0.975 0.94991 0.5
420 1 0.95 0.9999 0.5
ITEM: TIMESTEP
250
ITEM: NUMBER OF ATOMS
420
ITEM: BOX BOUNDS pp ss pp
0.0000000000000000e+00 2.2653923264628304e+01
-1.9618873042551413e-03 1.9765085072552679e+01
-2.8317404080785380e-01 2.8317404080785380e-01
ITEM: ATOMS id type xs ys zs
1 2 0 9.92504e-05 0.5
2 2 0.025 0.0497245 0.5
3 2 0.05 9.92504e-05 0.5
4 2 0.075 0.0497245 0.5
5 2 0.1 9.92504e-05 0.5
6 2 0.125 0.0497245 0.5
7 2 0.15 9.92504e-05 0.5
8 2 0.175 0.0497245 0.5
9 2 0.2 9.92504e-05 0.5
10 2 0.225 0.0497245 0.5
11 2 0.25 9.92504e-05 0.5
12 2 0.275 0.0497245 0.5
13 2 0.3 9.92504e-05 0.5
14 2 0.325 0.0497245 0.5
15 2 0.35 9.92504e-05 0.5
16 2 0.375 0.0497245 0.5
17 2 0.4 9.92504e-05 0.5
18 2 0.425 0.0497245 0.5
19 2 0.45 9.92504e-05 0.5
20 2 0.475 0.0497245 0.5
21 2 0 0.0993496 0.5
23 2 0.05 0.0993496 0.5
25 2 0.1 0.0993496 0.5
27 2 0.15 0.0993496 0.5
29 2 0.2 0.0993496 0.5
31 2 0.25 0.0993496 0.5
33 2 0.3 0.0993496 0.5
35 2 0.35 0.0993496 0.5
37 2 0.4 0.0993496 0.5
39 2 0.45 0.0993496 0.5
22 1 0.0265853 0.147953 0.5
100 1 0.473742 0.444901 0.5
43 1 0.0516913 0.196836 0.5
24 1 0.0757478 0.150266 0.5
45 1 0.101933 0.194343 0.5
26 1 0.124649 0.14752 0.5
28 1 0.177576 0.148398 0.5
47 1 0.151294 0.196809 0.5
30 1 0.22976 0.150642 0.5
49 1 0.199407 0.198381 0.5
32 1 0.276491 0.150327 0.5
51 1 0.248921 0.201263 0.5
53 1 0.303141 0.199668 0.5
34 1 0.326489 0.148409 0.5
55 1 0.354168 0.195275 0.5
36 1 0.375872 0.145735 0.5
38 1 0.42538 0.145671 0.5
57 1 0.402147 0.193787 0.5
40 1 0.478227 0.150353 0.5
59 1 0.449825 0.192924 0.5
42 1 0.0253331 0.2452 0.5
44 1 0.0731377 0.245979 0.5
46 1 0.123374 0.248282 0.5
48 1 0.173255 0.245798 0.5
50 1 0.224561 0.250815 0.5
52 1 0.280224 0.247222 0.5
54 1 0.329944 0.247367 0.5
56 1 0.378322 0.245083 0.5
58 1 0.427798 0.244348 0.5
60 1 0.475514 0.248559 0.5
98 1 0.422953 0.447233 0.5
62 1 0.0251158 0.342909 0.5
63 1 0.0491738 0.29274 0.5
64 1 0.0743163 0.345808 0.5
65 1 0.101975 0.296996 0.5
66 1 0.124639 0.348751 0.5
67 1 0.150582 0.297932 0.5
68 1 0.173977 0.349282 0.5
69 1 0.19959 0.298974 0.5
70 1 0.22685 0.346606 0.5
71 1 0.254637 0.29504 0.5
72 1 0.276962 0.348885 0.5
73 1 0.303759 0.296589 0.5
74 1 0.326685 0.349004 0.5
75 1 0.352 0.295258 0.5
76 1 0.377395 0.342679 0.5
77 1 0.400366 0.294196 0.5
78 1 0.42335 0.349079 0.5
79 1 0.449651 0.295649 0.5
80 1 0.474169 0.348015 0.5
96 1 0.372243 0.449514 0.5
83 1 0.0523374 0.391635 0.5
85 1 0.107532 0.398616 0.5
87 1 0.154207 0.403553 0.5
89 1 0.202173 0.39562 0.5
91 1 0.252838 0.397736 0.5
93 1 0.300407 0.39967 0.5
95 1 0.347985 0.399097 0.5
97 1 0.397878 0.39707 0.5
99 1 0.448518 0.399046 0.5
82 1 0.0282401 0.442447 0.5
84 1 0.0786932 0.444948 0.5
86 1 0.128224 0.454302 0.5
88 1 0.177227 0.452901 0.5
90 1 0.22418 0.445017 0.5
92 1 0.276189 0.44929 0.5
94 1 0.323417 0.449696 0.5
311 1 0.500448 0.493873 0.5
103 1 0.0511686 0.494236 0.5
105 1 0.0990094 0.499063 0.5
61 1 0.00179032 0.29683 0.5
291 1 0.498334 0.398612 0.5
41 1 0.00100422 0.19655 0.5
115 1 0.349162 0.498783 0.5
117 1 0.399973 0.494347 0.5
119 1 0.449579 0.496008 0.5
81 1 0.0017817 0.393264 0.5
111 1 0.247832 0.497547 0.5
101 1 0.00270579 0.493194 0.5
204 1 0.147895 0.997158 0.5
102 1 0.0246641 0.546401 0.5
109 1 0.19876 0.501493 0.5
104 1 0.0737861 0.544703 0.5
196 1 0.374778 0.938895 0.5
106 1 0.12328 0.550768 0.5
208 1 0.35079 0.990945 0.5
108 1 0.175984 0.551703 0.5
194 1 0.32496 0.939955 0.5
110 1 0.223764 0.55101 0.5
331 1 0.496453 0.59194 0.5
112 1 0.270925 0.5463 0.5
207 1 0.296571 0.994758 0.5
114 1 0.325851 0.548753 0.5
206 1 0.24624 0.98583 0.5
116 1 0.374462 0.542563 0.5
192 1 0.276568 0.944744 0.5
118 1 0.424531 0.544346 0.5
205 1 0.200904 0.994626 0.5
120 1 0.475319 0.542998 0.5
210 1 0.451173 0.994118 0.5
123 1 0.0481694 0.596107 0.5
125 1 0.0977066 0.594882 0.5
127 1 0.150406 0.598162 0.5
129 1 0.198238 0.602728 0.5
131 1 0.248547 0.599925 0.5
133 1 0.298014 0.594047 0.5
135 1 0.348532 0.596339 0.5
137 1 0.398488 0.59474 0.5
139 1 0.448339 0.593598 0.5
122 1 0.024573 0.646876 0.5
200 1 0.480305 0.939882 0.5
143 1 0.0484475 0.695541 0.5
124 1 0.0747372 0.645725 0.5
145 1 0.0983802 0.695487 0.5
126 1 0.121778 0.646871 0.5
128 1 0.172311 0.649925 0.5
147 1 0.145747 0.700401 0.5
130 1 0.222494 0.65179 0.5
149 1 0.194237 0.696192 0.5
132 1 0.275699 0.647548 0.5
151 1 0.251573 0.697229 0.5
153 1 0.301214 0.698416 0.5
134 1 0.3239 0.643716 0.5
155 1 0.351996 0.699089 0.5
136 1 0.377076 0.64517 0.5
138 1 0.425056 0.644021 0.5
157 1 0.4001 0.695559 0.5
140 1 0.472886 0.638608 0.5
159 1 0.451526 0.692876 0.5
142 1 0.0249672 0.74325 0.5
144 1 0.0740696 0.744028 0.5
146 1 0.121144 0.747512 0.5
148 1 0.17302 0.75008 0.5
150 1 0.222995 0.743916 0.5
152 1 0.273881 0.750138 0.5
154 1 0.327746 0.749021 0.5
156 1 0.379336 0.743707 0.5
158 1 0.429385 0.741802 0.5
160 1 0.480979 0.740322 0.5
190 1 0.219764 0.94225 0.5
162 1 0.0220408 0.84528 0.5
163 1 0.0472814 0.793636 0.5
164 1 0.0719393 0.843217 0.5
165 1 0.0964916 0.792861 0.5
166 1 0.119581 0.847093 0.5
167 1 0.146415 0.798198 0.5
168 1 0.171302 0.849321 0.5
169 1 0.195213 0.799856 0.5
170 1 0.219002 0.85078 0.5
171 1 0.245657 0.795696 0.5
172 1 0.26923 0.846266 0.5
173 1 0.300217 0.796444 0.5
174 1 0.321312 0.844288 0.5
175 1 0.353668 0.797965 0.5
176 1 0.378241 0.848592 0.5
177 1 0.406773 0.791654 0.5
178 1 0.430621 0.84122 0.5
179 1 0.457556 0.79198 0.5
180 1 0.477354 0.842061 0.5
209 1 0.398956 0.987119 0.5
183 1 0.0461283 0.89644 0.5
185 1 0.0933804 0.894981 0.5
187 1 0.144146 0.895263 0.5
189 1 0.192615 0.898435 0.5
191 1 0.248235 0.89817 0.5
193 1 0.298406 0.894408 0.5
195 1 0.350288 0.89177 0.5
197 1 0.403996 0.894618 0.5
199 1 0.451502 0.892809 0.5
182 1 0.0195017 0.945318 0.5
198 1 0.426359 0.94367 0.5
202 1 0.0419736 0.99775 0.5
184 1 0.0667988 0.946135 0.5
203 1 0.0917897 0.995547 0.5
186 1 0.117897 0.945277 0.5
188 1 0.168161 0.948114 0.5
107 1 0.150189 0.502576 0.5
113 1 0.297801 0.497028 0.5
211 2 0.5 9.92504e-05 0.5
212 2 0.525 0.0497245 0.5
213 2 0.55 9.92504e-05 0.5
214 2 0.575 0.0497245 0.5
215 2 0.6 9.92504e-05 0.5
216 2 0.625 0.0497245 0.5
217 2 0.65 9.92504e-05 0.5
218 2 0.675 0.0497245 0.5
219 2 0.7 9.92504e-05 0.5
220 2 0.725 0.0497245 0.5
221 2 0.75 9.92504e-05 0.5
222 2 0.775 0.0497245 0.5
223 2 0.8 9.92504e-05 0.5
224 2 0.825 0.0497245 0.5
225 2 0.85 9.92504e-05 0.5
226 2 0.875 0.0497245 0.5
227 2 0.9 9.92504e-05 0.5
228 2 0.925 0.0497245 0.5
229 2 0.95 9.92504e-05 0.5
230 2 0.975 0.0497245 0.5
231 2 0.5 0.0993496 0.5
233 2 0.55 0.0993496 0.5
235 2 0.6 0.0993496 0.5
237 2 0.65 0.0993496 0.5
239 2 0.7 0.0993496 0.5
241 2 0.75 0.0993496 0.5
243 2 0.8 0.0993496 0.5
245 2 0.85 0.0993496 0.5
247 2 0.9 0.0993496 0.5
249 2 0.95 0.0993496 0.5
232 1 0.528222 0.148106 0.5
251 1 0.503955 0.199253 0.5
253 1 0.552988 0.200329 0.5
234 1 0.576858 0.146693 0.5
255 1 0.603477 0.198532 0.5
236 1 0.627082 0.148454 0.5
238 1 0.675389 0.146269 0.5
257 1 0.651416 0.198245 0.5
240 1 0.724179 0.145393 0.5
259 1 0.698939 0.197314 0.5
242 1 0.772857 0.149477 0.5
261 1 0.747715 0.200719 0.5
263 1 0.79712 0.199004 0.5
244 1 0.822315 0.147905 0.5
265 1 0.846568 0.198713 0.5
246 1 0.870724 0.150868 0.5
248 1 0.924682 0.150947 0.5
267 1 0.895758 0.199073 0.5
250 1 0.975083 0.150267 0.5
269 1 0.951314 0.197752 0.5
252 1 0.524703 0.250166 0.5
254 1 0.575629 0.251342 0.5
256 1 0.622997 0.247107 0.5
258 1 0.676967 0.249069 0.5
260 1 0.723377 0.247702 0.5
262 1 0.771882 0.249005 0.5
264 1 0.819278 0.250236 0.5
266 1 0.873108 0.248204 0.5
268 1 0.924519 0.247922 0.5
270 1 0.977951 0.246564 0.5
321 1 0.750744 0.499624 0.5
272 1 0.525456 0.350104 0.5
273 1 0.549564 0.299396 0.5
274 1 0.575181 0.34851 0.5
275 1 0.600671 0.298999 0.5
276 1 0.626407 0.351152 0.5
277 1 0.653078 0.299796 0.5
278 1 0.675229 0.349525 0.5
279 1 0.70025 0.298713 0.5
280 1 0.726445 0.3483 0.5
281 1 0.750268 0.29839 0.5
282 1 0.777197 0.351217 0.5
283 1 0.797212 0.300279 0.5
284 1 0.825962 0.344668 0.5
285 1 0.84779 0.297088 0.5
286 1 0.873951 0.343188 0.5
287 1 0.905134 0.298455 0.5
288 1 0.927375 0.347216 0.5
289 1 0.953129 0.292675 0.5
290 1 0.975765 0.346273 0.5
327 1 0.900094 0.492313 0.5
293 1 0.551156 0.39681 0.5
295 1 0.603679 0.400742 0.5
297 1 0.653695 0.402903 0.5
299 1 0.705424 0.397921 0.5
301 1 0.753019 0.404404 0.5
303 1 0.799669 0.401381 0.5
305 1 0.848773 0.395401 0.5
307 1 0.899647 0.392771 0.5
309 1 0.952135 0.395242 0.5
292 1 0.526779 0.443394 0.5
294 1 0.574936 0.447058 0.5
296 1 0.625107 0.450256 0.5
298 1 0.677455 0.449566 0.5
300 1 0.728305 0.451779 0.5
302 1 0.779594 0.451312 0.5
304 1 0.827028 0.449275 0.5
306 1 0.873984 0.442436 0.5
308 1 0.923451 0.444347 0.5
310 1 0.977721 0.446196 0.5
319 1 0.701373 0.496628 0.5
317 1 0.650344 0.495448 0.5
329 1 0.949376 0.492622 0.5
325 1 0.851507 0.496639 0.5
313 1 0.548723 0.495695 0.5
271 1 0.500779 0.301426 0.5
315 1 0.599974 0.495958 0.5
201 1 0.993789 0.995065 0.5
312 1 0.521906 0.541718 0.5
181 1 0.996391 0.893094 0.5
314 1 0.572696 0.54444 0.5
141 1 0.998879 0.695242 0.5
316 1 0.624717 0.550536 0.5
404 1 0.822561 0.942182 0.5
318 1 0.673777 0.544284 0.5
417 1 0.798286 0.993223 0.5
320 1 0.725587 0.544552 0.5
121 1 0.99999 0.597143 0.5
322 1 0.776419 0.548709 0.5
419 1 0.895584 0.99824 0.5
324 1 0.825982 0.549124 0.5
408 1 0.920897 0.947012 0.5
326 1 0.877223 0.545891 0.5
161 1 0.999099 0.797095 0.5
328 1 0.92649 0.542125 0.5
406 1 0.870663 0.943089 0.5
330 1 0.975557 0.542459 0.5
418 1 0.848343 0.99382 0.5
333 1 0.546002 0.591411 0.5
335 1 0.59813 0.595468 0.5
337 1 0.650028 0.597679 0.5
339 1 0.699284 0.591359 0.5
341 1 0.749783 0.59251 0.5
343 1 0.800777 0.594292 0.5
345 1 0.852237 0.59718 0.5
347 1 0.901926 0.594783 0.5
349 1 0.951404 0.592281 0.5
332 1 0.522682 0.642316 0.5
420 1 0.94539 0.997156 0.5
353 1 0.550913 0.689707 0.5
334 1 0.574054 0.643619 0.5
355 1 0.599782 0.690229 0.5
336 1 0.621995 0.642301 0.5
338 1 0.677415 0.644452 0.5
357 1 0.650947 0.690709 0.5
340 1 0.72739 0.643538 0.5
359 1 0.704246 0.692318 0.5
342 1 0.777388 0.646268 0.5
361 1 0.753928 0.694053 0.5
363 1 0.802759 0.69525 0.5
344 1 0.825035 0.643437 0.5
365 1 0.849307 0.692923 0.5
346 1 0.874454 0.645212 0.5
348 1 0.926089 0.64407 0.5
367 1 0.899483 0.692154 0.5
350 1 0.974394 0.64421 0.5
369 1 0.948851 0.691968 0.5
352 1 0.528819 0.742687 0.5
354 1 0.577083 0.742126 0.5
356 1 0.624993 0.739682 0.5
358 1 0.674819 0.740222 0.5
360 1 0.729392 0.74417 0.5
362 1 0.777448 0.741516 0.5
364 1 0.825857 0.746194 0.5
366 1 0.872581 0.745946 0.5
368 1 0.922173 0.742647 0.5
370 1 0.969483 0.74471 0.5
371 1 0.503964 0.792554 0.5
372 1 0.527479 0.840777 0.5
373 1 0.551981 0.792565 0.5
374 1 0.575249 0.841536 0.5
375 1 0.600084 0.792599 0.5
376 1 0.623563 0.840257 0.5
377 1 0.650933 0.78933 0.5
378 1 0.677287 0.838567 0.5
379 1 0.702322 0.788908 0.5
380 1 0.725089 0.840178 0.5
381 1 0.7542 0.790929 0.5
382 1 0.777026 0.843113 0.5
383 1 0.798868 0.793913 0.5
384 1 0.826534 0.842901 0.5
385 1 0.853868 0.795215 0.5
386 1 0.874835 0.84595 0.5
387 1 0.900425 0.793435 0.5
388 1 0.92298 0.842464 0.5
389 1 0.947897 0.793776 0.5
390 1 0.971797 0.844766 0.5
391 1 0.501328 0.893442 0.5
393 1 0.550179 0.890634 0.5
395 1 0.603837 0.889028 0.5
397 1 0.653067 0.890226 0.5
399 1 0.699883 0.894197 0.5
401 1 0.750423 0.891909 0.5
403 1 0.799567 0.894582 0.5
405 1 0.85148 0.89415 0.5
407 1 0.898275 0.897191 0.5
409 1 0.945871 0.894559 0.5
392 1 0.530616 0.943339 0.5
410 1 0.968959 0.945096 0.5
412 1 0.555182 0.996992 0.5
394 1 0.579189 0.936614 0.5
413 1 0.601822 0.985575 0.5
396 1 0.627826 0.937635 0.5
398 1 0.67473 0.94185 0.5
414 1 0.648678 0.992578 0.5
400 1 0.726971 0.938458 0.5
415 1 0.701345 0.989758 0.5
402 1 0.774544 0.939463 0.5
416 1 0.752985 0.985826 0.5
351 1 0.500551 0.691283 0.5
411 1 0.504107 0.989742 0.5
323 1 0.801335 0.501328 0.5
ITEM: TIMESTEP
500
ITEM: NUMBER OF ATOMS
420
ITEM: BOX BOUNDS pp ss pp
0.0000000000000000e+00 2.2653923264628304e+01
-1.9618873042551413e-03 1.9742102686639960e+01
-2.8317404080785380e-01 2.8317404080785380e-01
ITEM: ATOMS id type xs ys zs
1 2 0 9.93659e-05 0.5
2 2 0.025 0.0497823 0.5
3 2 0.05 9.93659e-05 0.5
4 2 0.075 0.0497823 0.5
5 2 0.1 9.93659e-05 0.5
6 2 0.125 0.0497823 0.5
7 2 0.15 9.93659e-05 0.5
8 2 0.175 0.0497823 0.5
9 2 0.2 9.93659e-05 0.5
10 2 0.225 0.0497823 0.5
11 2 0.25 9.93659e-05 0.5
12 2 0.275 0.0497823 0.5
13 2 0.3 9.93659e-05 0.5
14 2 0.325 0.0497823 0.5
15 2 0.35 9.93659e-05 0.5
16 2 0.375 0.0497823 0.5
17 2 0.4 9.93659e-05 0.5
18 2 0.425 0.0497823 0.5
19 2 0.45 9.93659e-05 0.5
20 2 0.475 0.0497823 0.5
21 2 0 0.0994653 0.5
23 2 0.05 0.0994653 0.5
25 2 0.1 0.0994653 0.5
27 2 0.15 0.0994653 0.5
29 2 0.2 0.0994653 0.5
31 2 0.25 0.0994653 0.5
33 2 0.3 0.0994653 0.5
35 2 0.35 0.0994653 0.5
37 2 0.4 0.0994653 0.5
39 2 0.45 0.0994653 0.5
22 1 0.0250534 0.151339 0.5
100 1 0.473757 0.448878 0.5
43 1 0.0512686 0.203705 0.5
24 1 0.0744681 0.151869 0.5
45 1 0.0990425 0.198272 0.5
26 1 0.123189 0.149026 0.5
28 1 0.172391 0.146744 0.5
47 1 0.148481 0.195972 0.5
30 1 0.226729 0.147618 0.5
49 1 0.197032 0.194105 0.5
32 1 0.275407 0.149837 0.5
51 1 0.247894 0.199362 0.5
53 1 0.300568 0.198926 0.5
34 1 0.325676 0.149662 0.5
55 1 0.3472 0.201255 0.5
36 1 0.373777 0.152012 0.5
38 1 0.421533 0.148316 0.5
57 1 0.39623 0.200912 0.5
40 1 0.47199 0.147579 0.5
59 1 0.446183 0.20104 0.5
42 1 0.0242651 0.249061 0.5
44 1 0.0750255 0.251744 0.5
46 1 0.12575 0.250411 0.5
48 1 0.174717 0.249424 0.5
50 1 0.223463 0.246784 0.5
52 1 0.273975 0.248614 0.5
54 1 0.323749 0.250386 0.5
56 1 0.371833 0.25338 0.5
58 1 0.422884 0.250919 0.5
60 1 0.470576 0.248173 0.5
98 1 0.426729 0.445743 0.5
62 1 0.0245602 0.348162 0.5
63 1 0.0502126 0.299897 0.5
64 1 0.0749201 0.347579 0.5
65 1 0.0987382 0.300538 0.5
66 1 0.123162 0.349182 0.5
67 1 0.149545 0.298296 0.5
68 1 0.17368 0.345113 0.5
69 1 0.200883 0.299432 0.5
70 1 0.223753 0.347414 0.5
71 1 0.250372 0.296418 0.5
72 1 0.272989 0.350029 0.5
73 1 0.297689 0.299977 0.5
74 1 0.319287 0.349601 0.5
75 1 0.344626 0.299832 0.5
76 1 0.372351 0.347524 0.5
77 1 0.400867 0.300664 0.5
78 1 0.42606 0.349485 0.5
79 1 0.451386 0.300116 0.5
80 1 0.477281 0.348271 0.5
96 1 0.377498 0.446147 0.5
83 1 0.0510736 0.395295 0.5
85 1 0.0993461 0.39721 0.5
87 1 0.148929 0.401635 0.5
89 1 0.199376 0.400255 0.5
91 1 0.250216 0.396783 0.5
93 1 0.298629 0.400259 0.5
95 1 0.350673 0.394962 0.5
97 1 0.399569 0.395147 0.5
99 1 0.451218 0.399715 0.5
82 1 0.0263878 0.448165 0.5
84 1 0.0746423 0.44606 0.5
86 1 0.121783 0.449952 0.5
88 1 0.173668 0.446984 0.5
90 1 0.22512 0.446816 0.5
92 1 0.276931 0.447967 0.5
94 1 0.326621 0.444468 0.5
105 1 0.098605 0.498938 0.5
101 1 0.00295145 0.499968 0.5
111 1 0.24638 0.496042 0.5
251 1 0.497114 0.196139 0.5
113 1 0.302534 0.496979 0.5
107 1 0.150984 0.49747 0.5
115 1 0.351876 0.496427 0.5
117 1 0.403991 0.49824 0.5
109 1 0.199777 0.494469 0.5
81 1 0.00330072 0.400414 0.5
103 1 0.0521571 0.495256 0.5
204 1 0.150277 0.994649 0.5
102 1 0.0258238 0.548316 0.5
391 1 0.497865 0.893891 0.5
104 1 0.0749569 0.548186 0.5
196 1 0.376557 0.943127 0.5
106 1 0.123771 0.547452 0.5
208 1 0.349282 0.994307 0.5
108 1 0.17564 0.545217 0.5
194 1 0.325923 0.945453 0.5
110 1 0.224662 0.547793 0.5
188 1 0.174094 0.946237 0.5
112 1 0.274657 0.541853 0.5
207 1 0.302377 0.995131 0.5
114 1 0.326996 0.548998 0.5
206 1 0.247924 0.995354 0.5
116 1 0.374507 0.545995 0.5
192 1 0.276672 0.94669 0.5
118 1 0.42563 0.550532 0.5
205 1 0.198736 0.995809 0.5
120 1 0.477125 0.551297 0.5
210 1 0.449446 0.98887 0.5
123 1 0.0519279 0.597682 0.5
125 1 0.102138 0.594743 0.5
127 1 0.150361 0.59513 0.5
129 1 0.198596 0.596989 0.5
131 1 0.25121 0.594374 0.5
133 1 0.300603 0.594107 0.5
135 1 0.34917 0.597428 0.5
137 1 0.39908 0.597571 0.5
139 1 0.448241 0.599629 0.5
122 1 0.0270291 0.650846 0.5
200 1 0.475891 0.944549 0.5
143 1 0.0495361 0.698782 0.5
124 1 0.0782012 0.644315 0.5
145 1 0.0970985 0.695998 0.5
126 1 0.125578 0.645774 0.5
128 1 0.173261 0.64702 0.5
147 1 0.149278 0.695203 0.5
130 1 0.223238 0.64576 0.5
149 1 0.199388 0.696239 0.5
132 1 0.273636 0.643739 0.5
151 1 0.248397 0.692284 0.5
153 1 0.299043 0.696175 0.5
134 1 0.321775 0.644864 0.5
155 1 0.348972 0.697466 0.5
136 1 0.373781 0.646957 0.5
138 1 0.425131 0.647154 0.5
157 1 0.39699 0.697874 0.5
140 1 0.473692 0.647529 0.5
159 1 0.448107 0.699489 0.5
142 1 0.0236452 0.746138 0.5
144 1 0.0741332 0.747511 0.5
146 1 0.124652 0.748983 0.5
148 1 0.175629 0.74559 0.5
150 1 0.223877 0.7472 0.5
152 1 0.272478 0.745533 0.5
154 1 0.323633 0.748825 0.5
156 1 0.371079 0.745982 0.5
158 1 0.421011 0.746242 0.5
160 1 0.472357 0.747545 0.5
190 1 0.225353 0.944409 0.5
162 1 0.0261044 0.844534 0.5
163 1 0.048285 0.79418 0.5
164 1 0.0767484 0.846206 0.5
165 1 0.0987677 0.795669 0.5
166 1 0.124179 0.846061 0.5
167 1 0.150932 0.796817 0.5
168 1 0.176175 0.847573 0.5
169 1 0.199895 0.795494 0.5
170 1 0.227653 0.848935 0.5
171 1 0.24722 0.797085 0.5
172 1 0.273931 0.845843 0.5
173 1 0.296087 0.796152 0.5
174 1 0.323376 0.84639 0.5
175 1 0.347634 0.797569 0.5
176 1 0.372548 0.845076 0.5
177 1 0.398122 0.791867 0.5
178 1 0.421192 0.843848 0.5
179 1 0.447909 0.79579 0.5
180 1 0.471437 0.845057 0.5
209 1 0.399089 0.991001 0.5
183 1 0.0514645 0.897485 0.5
185 1 0.103057 0.896993 0.5
187 1 0.150548 0.894255 0.5
189 1 0.201152 0.897745 0.5
191 1 0.250741 0.896905 0.5
193 1 0.300593 0.89787 0.5
195 1 0.347137 0.894563 0.5
197 1 0.399945 0.893573 0.5
199 1 0.449797 0.892693 0.5
182 1 0.0248802 0.944054 0.5
198 1 0.425948 0.942633 0.5
202 1 0.0483734 0.994396 0.5
184 1 0.0727262 0.946261 0.5
203 1 0.0989501 0.998859 0.5
186 1 0.126393 0.944834 0.5
371 1 0.497799 0.793793 0.5
141 1 0.00205802 0.696629 0.5
351 1 0.497374 0.696612 0.5
411 1 0.497151 0.992332 0.5
119 1 0.452401 0.503629 0.5
211 2 0.5 9.93659e-05 0.5
212 2 0.525 0.0497823 0.5
213 2 0.55 9.93659e-05 0.5
214 2 0.575 0.0497823 0.5
215 2 0.6 9.93659e-05 0.5
216 2 0.625 0.0497823 0.5
217 2 0.65 9.93659e-05 0.5
218 2 0.675 0.0497823 0.5
219 2 0.7 9.93659e-05 0.5
220 2 0.725 0.0497823 0.5
221 2 0.75 9.93659e-05 0.5
222 2 0.775 0.0497823 0.5
223 2 0.8 9.93659e-05 0.5
224 2 0.825 0.0497823 0.5
225 2 0.85 9.93659e-05 0.5
226 2 0.875 0.0497823 0.5
227 2 0.9 9.93659e-05 0.5
228 2 0.925 0.0497823 0.5
229 2 0.95 9.93659e-05 0.5
230 2 0.975 0.0497823 0.5
231 2 0.5 0.0994653 0.5
233 2 0.55 0.0994653 0.5
235 2 0.6 0.0994653 0.5
237 2 0.65 0.0994653 0.5
239 2 0.7 0.0994653 0.5
241 2 0.75 0.0994653 0.5
243 2 0.8 0.0994653 0.5
245 2 0.85 0.0994653 0.5
247 2 0.9 0.0994653 0.5
249 2 0.95 0.0994653 0.5
232 1 0.526575 0.149383 0.5
41 1 1.00225 0.198397 0.5
253 1 0.549898 0.197554 0.5
234 1 0.577768 0.148006 0.5
255 1 0.602798 0.198966 0.5
236 1 0.626755 0.146907 0.5
238 1 0.675251 0.146706 0.5
257 1 0.652923 0.195737 0.5
240 1 0.728237 0.148005 0.5
259 1 0.704548 0.196869 0.5
242 1 0.777049 0.149556 0.5
261 1 0.75554 0.197265 0.5
263 1 0.802731 0.198115 0.5
244 1 0.825003 0.148622 0.5
265 1 0.852191 0.198065 0.5
246 1 0.87568 0.148217 0.5
248 1 0.928586 0.149076 0.5
267 1 0.900747 0.198547 0.5
250 1 0.976442 0.149691 0.5
269 1 0.952212 0.199743 0.5
252 1 0.52496 0.246496 0.5
254 1 0.574894 0.246046 0.5
256 1 0.625375 0.246042 0.5
258 1 0.675824 0.243661 0.5
260 1 0.72922 0.243984 0.5
262 1 0.779793 0.247698 0.5
264 1 0.828068 0.247961 0.5
266 1 0.875532 0.246134 0.5
268 1 0.925022 0.248915 0.5
270 1 0.9755 0.247403 0.5
315 1 0.599517 0.497485 0.5
272 1 0.525446 0.346904 0.5
273 1 0.550354 0.298721 0.5
274 1 0.576195 0.345529 0.5
275 1 0.599261 0.294087 0.5
276 1 0.624667 0.344249 0.5
277 1 0.650205 0.298093 0.5
278 1 0.674469 0.349061 0.5
279 1 0.700432 0.291975 0.5
280 1 0.726986 0.347268 0.5
281 1 0.754555 0.295202 0.5
282 1 0.775354 0.347932 0.5
283 1 0.804274 0.296495 0.5
284 1 0.827314 0.345733 0.5
285 1 0.852876 0.29825 0.5
286 1 0.879295 0.345647 0.5
287 1 0.903408 0.298567 0.5
288 1 0.926537 0.350088 0.5
289 1 0.950508 0.298704 0.5
290 1 0.978102 0.352477 0.5
327 1 0.900206 0.497455 0.5
293 1 0.55014 0.395111 0.5
295 1 0.598567 0.395457 0.5
297 1 0.646571 0.395644 0.5
299 1 0.69995 0.393637 0.5
301 1 0.749723 0.396398 0.5
303 1 0.800704 0.39671 0.5
305 1 0.850567 0.395686 0.5
307 1 0.899608 0.396071 0.5
309 1 0.952146 0.400936 0.5
292 1 0.523405 0.444448 0.5
294 1 0.57192 0.44508 0.5
296 1 0.622498 0.448581 0.5
298 1 0.673818 0.443141 0.5
300 1 0.723077 0.44202 0.5