LAMMPS (29 Sep 2021 - Update 2)
Reading data file ...
  orthogonal box = (0.0000000 0.0000000 -0.10000000) to (35.856860 35.856860 0.10000000)
  2 by 2 by 1 MPI processor grid
  reading atoms ...
  1200 atoms
  scanning bonds ...
  1 = max bonds/atom
  reading bonds ...
  300 bonds
Finding 1-2 1-3 1-4 neighbors ...
  special bond factors lj:    0        0        0       
  special bond factors coul:  0        0        0       
     2 = max # of 1-2 neighbors
     1 = max # of 1-3 neighbors
     1 = max # of 1-4 neighbors
     2 = max # of special neighbors
  special bonds CPU = 0.000 seconds
  read_data CPU = 0.027 seconds
Finding 1-2 1-3 1-4 neighbors ...
  special bond factors lj:    0        1        1       
  special bond factors coul:  0        1        1       
     2 = max # of 1-2 neighbors
     2 = max # of special neighbors
  special bonds CPU = 0.000 seconds
Neighbor list info ...
  update every 1 steps, delay 5 steps, check yes
  max neighbors/atom: 2000, page size: 100000
  master list distance cutoff = 1.42246
  ghost atom cutoff = 1.42246
  binsize = 0.71123, bins = 51 51 1
  1 neighbor lists, perpetual/occasional/extra = 1 0 0
  (1) pair soft, perpetual
      attributes: half, newton on
      pair build: half/bin/newton
      stencil: half/bin/2d
      bin: standard
Setting up Verlet run ...
  Unit style    : lj
  Current step  : 0
  Time step     : 0.005
WARNING: Communication cutoff 1.42246 is shorter than a bond length based estimate of 1.425. This may lead to errors. (../comm.cpp:730)
Per MPI rank memory allocation (min/avg/max) = 4.126 | 4.126 | 4.127 Mbytes
Step Temp E_pair E_mol TotEng Press 
       0         0.45   0.40003481 2.2200223e-06   0.84966203   0.78952518 
      50   0.47411013   0.67721272  0.057404514    1.2083323    1.3375852 
     100         0.45   0.73046745  0.054836584     1.234929    2.3196516 
     150   0.67521742   0.72402001  0.043490075    1.4421648    2.8744416 
     200         0.45   0.78481891  0.076931503    1.3113754    3.0412388 
     250   0.66479018   0.69790602  0.081075564    1.4432178    3.6917024 
     300         0.45   0.76820218  0.066727591    1.2845548    3.7861054 
     350   0.67619136     0.625715  0.072722727    1.3740656    4.2861621 
     400         0.45   0.68527759  0.090724527    1.2256271    4.4725214 
     450   0.56702844   0.64402767  0.080555563    1.2911391    4.7402211 
     500         0.45   0.64883009  0.078376672    1.1768318    4.7919294 
     550     0.564664   0.58260368  0.080779475    1.2275766    4.9855705 
     600         0.45   0.58193041  0.088386617     1.119942     5.131481 
     650   0.52110993    0.5415273  0.097683746    1.1598867    5.2500294 
     700         0.45   0.50856787  0.088471208    1.0466641    5.2550165 
     750   0.51510855   0.47441291  0.089429375    1.0785216     5.375763 
     800         0.45   0.49926696  0.085958476    1.0348504    5.4665914 
     850   0.50688494   0.46614429  0.088962292    1.0615691     5.556932 
     900         0.45   0.47785593   0.10150857    1.0289895    5.7765975 
     950   0.49590559   0.46050477  0.096404887     1.052402    5.8649245 
    1000         0.45   0.47691182   0.08808163    1.0146185    6.0177568 
Loop time of 0.0524994 on 4 procs for 1000 steps with 1200 atoms

Performance: 8228667.978 tau/day, 19047.843 timesteps/s
99.5% CPU use with 4 MPI tasks x no OpenMP threads

MPI task timing breakdown:
Section |  min time  |  avg time  |  max time  |%varavg| %total
---------------------------------------------------------------
Pair    | 0.027111   | 0.027884   | 0.02916    |   0.5 | 53.11
Bond    | 0.0016895  | 0.0017701  | 0.0018642  |   0.2 |  3.37
Neigh   | 0.0058005  | 0.005818   | 0.0058297  |   0.0 | 11.08
Comm    | 0.0068907  | 0.0083227  | 0.0092623  |   1.0 | 15.85
Output  | 0.00021397 | 0.00021941 | 0.00023481 |   0.0 |  0.42
Modify  | 0.0062467  | 0.0063728  | 0.006476   |   0.1 | 12.14
Other   |            | 0.002113   |            |       |  4.02

Nlocal:        300.000 ave         305 max         292 min
Histogram: 1 0 0 0 0 0 1 0 1 1
Nghost:        100.250 ave         108 max          93 min
Histogram: 1 0 1 0 0 0 1 0 0 1
Neighs:        784.000 ave         815 max         739 min
Histogram: 1 0 0 0 0 0 1 1 0 1

Total # of neighbors = 3136
Ave neighs/atom = 2.6133333
Ave special neighs/atom = 0.50000000
Neighbor list builds = 92
Dangerous builds = 0
Neighbor list info ...
  update every 1 steps, delay 5 steps, check yes
  max neighbors/atom: 2000, page size: 100000
  master list distance cutoff = 2.8
  ghost atom cutoff = 2.8
  binsize = 1.4, bins = 26 26 1
  1 neighbor lists, perpetual/occasional/extra = 1 0 0
  (1) pair lj/cut, perpetual
      attributes: half, newton on
      pair build: half/bin/newton
      stencil: half/bin/2d
      bin: standard
Setting up Verlet run ...
  Unit style    : lj
  Current step  : 0
  Time step     : 0.005
Per MPI rank memory allocation (min/avg/max) = 5.136 | 5.136 | 5.137 Mbytes
Step Temp E_pair E_mol TotEng Press 
       0         0.45  -0.85280815   0.08808163  -0.31510152    2.3316464 
      50   0.46800872  -0.83650055  0.058410959  -0.31047088    2.4189607 
     100   0.45649993   -0.8249033    0.0698989  -0.29888489    2.6166305 
     150   0.45953914  -0.84063332   0.07463917  -0.30683796    2.4914115 
     200   0.46479007  -0.82765888  0.070931647  -0.29232449    2.5151687 
     250   0.48377979  -0.83894181   0.06181681  -0.29374836    2.4830067 
     300         0.45   -0.8361435  0.072258557  -0.31425994    2.5240949 
     350   0.44943871   -0.8249414  0.062695727   -0.3131815    2.4829542 
     400         0.45  -0.84796108  0.058872508  -0.33946357    2.3079229 
     450   0.44600118  -0.85609039  0.066176422  -0.34428445     2.344383 
     500   0.43862767  -0.84815827  0.072746717   -0.3371494    2.2971996 
     550   0.44410663  -0.85639379   0.06656841  -0.34608884    2.3650801 
     600   0.43765596  -0.83355531  0.060400747  -0.33586332    2.4279656 
     650   0.45723256  -0.86609576  0.060824014  -0.34842022    2.2785356 
     700     0.445393   -0.8372238   0.06118153  -0.33102043    2.4276258 
     750   0.45518384  -0.86109506  0.065629887  -0.34066065    2.2166986 
     800   0.45962995  -0.85235946  0.064837987  -0.32827454    2.3094658 
     850   0.45629209  -0.85796434  0.064411884   -0.3376406    2.2617532 
     900         0.45   -0.8703375  0.055705169  -0.36500734    2.2039249 
     950   0.45834584  -0.87156789  0.054565053  -0.35903895    2.1934205 
    1000    0.4369853  -0.86777514  0.069972704   -0.3611813    2.2200603 
    1050   0.44045142  -0.85285069  0.062876786  -0.34988952    2.2921593 
    1100   0.44862131  -0.86533774  0.065507533  -0.35158274    2.1797908 
    1150     0.456894  -0.86254134  0.060346198  -0.34568189    2.1596208 
    1200   0.44404544  -0.86400638   0.06556918   -0.3547618    2.2215408 
    1250   0.44628064    -0.858495  0.062981131  -0.34960513    2.2868949 
    1300   0.45855353  -0.87124094  0.067243794  -0.34582574    2.1062134 
    1350   0.44280799  -0.86637699  0.074340225  -0.34959778    2.2867466 
    1400    0.4533701  -0.86966014  0.064726513  -0.35194134    2.1414693 
    1450   0.47285114  -0.87310449  0.054513954  -0.34613344    2.1957932 
    1500   0.45705462  -0.85125337  0.061237566  -0.33334206    2.2645271 
    1550   0.47282866   -0.8714477  0.061359876  -0.33765319     2.208142 
    1600   0.45924307  -0.86130274  0.056916844  -0.34552553    2.3246491 
    1650   0.44974145  -0.86042178  0.066568551  -0.34448657    2.3165389 
    1700         0.45  -0.86471473   0.05295069  -0.36213904     2.179292 
    1750   0.43154851  -0.85710319  0.060329041  -0.36558526    2.2507438 
    1800   0.43916337  -0.86238937  0.065427376  -0.35816459    2.1042409 
    1850   0.44501915  -0.87247627  0.062709224  -0.36511874    2.1236294 
    1900    0.4628835  -0.88356878  0.062091167  -0.35897985    2.0672277 
    1950   0.44531582  -0.87055306  0.059750126  -0.36585821    2.1562513 
    2000    0.4457333  -0.86713116   0.06559462  -0.35617468    2.1491005 
    2050   0.43325945  -0.85307561  0.059059498  -0.36111772     2.263678 
    2100   0.45019078  -0.87963771  0.067534943  -0.36228715    2.1682434 
    2150    0.4555475  -0.86945151  0.053504305  -0.36077933     2.142784 
    2200   0.44054619  -0.86133949  0.060354989  -0.36080543     2.185728 
    2250   0.44490554  -0.87618416  0.071673774   -0.3599756    2.1015031 
    2300   0.45495801  -0.87230915  0.061745726  -0.35598454    2.1685969 
    2350   0.44604252   -0.8622177  0.063893196  -0.35265368    2.2266799 
    2400   0.44695539  -0.87024132  0.063644085  -0.36001431    2.1990272 
    2450   0.47038082  -0.88385859  0.062814551  -0.35105521    2.0370759 
    2500    0.4575903   -0.8694426  0.058689753  -0.35354388    2.1708465 
    2550   0.45380034  -0.86463349  0.054576004  -0.35663531    2.2316157 
    2600   0.46321049  -0.87485196   0.06122712  -0.35080036    2.1325536 
    2650    0.4547316  -0.86099363   0.05722731  -0.34941366    2.2468633 
    2700   0.45398554  -0.85987146  0.054140621  -0.35212362    2.1984817 
    2750    0.4489288  -0.87874503  0.068124943   -0.3620654    2.0686297 
    2800   0.45361285  -0.86684189  0.058048501  -0.35555855    2.1386984 
    2850   0.45290228   -0.8728026  0.064275219  -0.35600252    2.1597986 
    2900    0.4541565  -0.87609591  0.063273066  -0.35904481    2.1418857 
    2950   0.44336954  -0.85706299  0.063380759  -0.35068217    2.2431181 
    3000   0.45634106  -0.87604305  0.067198306  -0.35288397    2.1234718 
    3050   0.43321939  -0.84833104  0.057582887  -0.35788978    2.3150294 
    3100   0.46636351  -0.87519105  0.056500919  -0.35271526    2.0785527 
    3150   0.46260211  -0.86788066  0.053203072  -0.35246098    2.1532913 
    3200   0.44825165  -0.87392713  0.067136829  -0.35891219    2.1213419 
    3250   0.46207942  -0.88010704  0.061357262  -0.35705543    2.1018096 
    3300         0.45  -0.88896976  0.066208545  -0.37313621    1.8695665 
    3350   0.46177089  -0.89231132  0.056253441   -0.3746718    1.9422995 
    3400   0.43509227  -0.87511204  0.064191447   -0.3761909    2.0514639 
    3450   0.44135918  -0.87279948  0.059067657  -0.37274044    2.0759042 
    3500   0.44717098  -0.87601995  0.055965094  -0.37325652    2.0211521 
    3550   0.44031035  -0.86220926  0.053638819  -0.36862703    2.1429585 
    3600   0.43783854  -0.87541023  0.062015119  -0.37592143    2.0271969 
    3650   0.43398524  -0.86178321  0.058002993  -0.37015663    2.1737976 
    3700   0.43977929  -0.86565591   0.06414462  -0.36209847    2.0769704 
    3750   0.43986848  -0.87432821  0.057702359  -0.37712393    2.1202771 
    3800   0.46192637  -0.88848071  0.052159396  -0.37477988    2.0351737 
    3850   0.45935911  -0.88524303  0.051311155  -0.37495556     1.975665 
    3900   0.45217819  -0.87381167  0.053368573  -0.36864172    2.0916768 
    3950   0.44463788  -0.87330706  0.061550149  -0.36748956    2.1014793 
    4000    0.4472722  -0.88060848  0.059896197  -0.37381281    1.9945245 
    4050   0.44019539  -0.87743673  0.062091145  -0.37551703    2.0401416 
    4100   0.45026541  -0.88000088  0.063589231  -0.36652147    1.9790929 
    4150   0.44316167  -0.87349112   0.06223127  -0.36846748    2.1283487 
    4200   0.43249952  -0.86139319  0.059986333  -0.36926775    2.1560093 
    4250   0.44518799  -0.89151394  0.072223513  -0.37447342    1.9459135 
    4300   0.44947192   -0.8721728  0.057580165  -0.36549527    2.0896009 
    4350   0.44179739  -0.88087376  0.066433826   -0.3730107    2.0816037 
    4400   0.45514884  -0.89188638  0.066458047  -0.37065878    1.9685544 
    4450   0.45149448  -0.88528778  0.066215888  -0.36795366    1.9155696 
    4500   0.44751866  -0.88139159   0.06660753  -0.36763833    2.0480202 
    4550   0.44512564  -0.86988347  0.057568025  -0.36756074     2.058367 
    4600   0.45653365  -0.88273476  0.058362184  -0.36821937    1.9539896 
    4650   0.46140963  -0.89286931  0.060435068  -0.37140912    1.9657091 
    4700   0.45594105  -0.88205976  0.061697039  -0.36480162    1.9821531 
    4750   0.46560813  -0.89003438   0.06259604  -0.36221821    1.9150222 
    4800     0.458577  -0.87573518  0.056873422  -0.36066691    2.0465581 
    4850   0.45921722  -0.88272123  0.060977386  -0.36290931    1.9935752 
    4900   0.46340875   -0.8855352  0.056528965  -0.36598366    2.0234285 
    4950   0.47306755  -0.89781463   0.06180747  -0.36333384    2.0143679 
    5000   0.46770414   -0.8920343  0.052932318   -0.3717876    2.0045752 
    5050   0.45182894  -0.88570044  0.066722747  -0.36752527    2.0364705 
    5100   0.45293155  -0.88265193  0.062494917   -0.3676029    2.0221549 
    5150    0.4563923    -0.875143  0.058182793  -0.36094823    2.0936006 
    5200   0.46257473  -0.88718627  0.067135564  -0.35786145    1.9896533 
    5250    0.4729743  -0.89268201  0.060238348  -0.35986351    1.9210978 
    5300   0.46903508  -0.87638114  0.050791576  -0.35694535    2.0455819 
    5350    0.4678911  -0.89823469   0.06664687  -0.36408664     1.914797 
    5400   0.46329791  -0.88309925  0.063309318   -0.3568781    1.9765677 
    5450   0.47301247  -0.89394822  0.065225621  -0.35610431    1.8437612 
    5500   0.46540087  -0.88327885   0.05966303  -0.35860279    1.9699019 
    5550   0.47545382  -0.89440987  0.061017882  -0.35833438    1.9107024 
    5600    0.4566551  -0.87095422  0.058658613  -0.35602106    2.0662981 
    5650   0.46525421   -0.8908834  0.066634591  -0.35938231    1.8946973 
    5700   0.44097596  -0.86764247  0.069550056  -0.35748393    2.0732383 
    5750     0.463984  -0.87799031  0.064742273   -0.3496507    2.0091733 
    5800   0.46279162  -0.88516988  0.064903937  -0.35785998    1.9558242 
    5850   0.46215141  -0.87845787  0.058899337  -0.35779225    2.0889261 
    5900         0.45  -0.88940438   0.05906957  -0.38070981    1.9340575 
    5950   0.45267059  -0.88729807  0.053452889  -0.38155181    1.9158804 
    6000   0.43651181  -0.88135358  0.060795058  -0.38441047    1.9831192 
    6050   0.44985983  -0.89329732  0.062824085  -0.38098829    1.8340879 
    6100   0.45290488  -0.88433013  0.058291394  -0.37351128    1.8818744 
    6150   0.44875505  -0.88970063  0.057403111  -0.38391643    1.9604775 
    6200   0.45480739  -0.90395258   0.06864128  -0.38088292    1.8010802 
    6250   0.45314236  -0.88926866  0.056406727  -0.38009719    1.9525957 
    6300   0.45242249  -0.89355314  0.062714846  -0.37879282    1.8370482 
    6350   0.44734311  -0.89224247  0.063816613  -0.38145554    1.9764115 
    6400   0.44498909  -0.89130486  0.072709997   -0.3739766    1.8599545 
    6450   0.46332865   -0.8957346  0.056209503  -0.37658255     1.884563 
    6500   0.44933658  -0.89278725  0.064264433  -0.37956068    1.9533057 
    6550   0.46526355  -0.90576957  0.065219305  -0.37567443    1.8589166 
    6600   0.45255069   -0.8942814  0.060456631   -0.3816512    1.9358213 
    6650   0.46821701  -0.89996754  0.058763358  -0.37337735    1.8331233 
    6700   0.45590798  -0.89694786  0.059463991  -0.38195582    1.8781225 
    6750   0.44940587  -0.89167006  0.063471173  -0.37916752    1.9098056 
    6800   0.43233021  -0.87241318  0.059251722  -0.38119153    2.0115659 
    6850   0.44697932   -0.8841699  0.059211572   -0.3783515    1.9844395 
    6900   0.43641543  -0.87687619  0.064223791  -0.37660065    1.9888931 
    6950   0.45093248  -0.90062692  0.066172895  -0.38389732    1.8278708 
    7000   0.44922012   -0.8952213  0.066952309  -0.37942321    1.7871855 
    7050   0.45194108  -0.89543018  0.064617027   -0.3792487    1.8021636 
    7100   0.45466001  -0.90222261  0.061493361  -0.38644812    1.8183899 
    7150    0.4572047   -0.9016651  0.062413392  -0.38242801     1.860369 
    7200   0.45338954  -0.88659272  0.056637833  -0.37694317     1.965994 
    7250   0.46669626  -0.91009051  0.063340405  -0.38044276    1.7640051 
    7300   0.44811057  -0.89526718   0.07252813   -0.3750019    1.7932448 
    7350   0.46901063  -0.90813508  0.058339121  -0.38117617    1.8151602 
    7400   0.46732493  -0.89112677  0.052222159  -0.37196911    1.7982664 
    7450   0.43932042  -0.88586927  0.064869885  -0.38204506    1.9601779 
    7500   0.44147808  -0.89282742  0.072573714  -0.37914353    1.8924773 
    7550   0.45155196  -0.88661054  0.062820499  -0.37261438    1.9426693 
    7600   0.46827612  -0.90010245  0.053800199  -0.37841636    1.8601211 
    7650   0.47386769  -0.90602966   0.05512282  -0.37743404    1.8192253 
    7700   0.44870458  -0.88691996  0.057805399   -0.3807839    1.9459526 
    7750    0.4572675  -0.89574956  0.055353746  -0.38350937     1.881743 
    7800   0.44337899  -0.88849707  0.063269894  -0.38221767    1.9454245 
    7850   0.45039435  -0.88805783  0.060925334  -0.37711348     1.968995 
    7900   0.45413847  -0.89510219  0.060667756  -0.38067441    1.8384322 
    7950   0.44871158  -0.89735334  0.066032726  -0.38298296    1.8728696 
    8000   0.44921074  -0.89238571  0.063038268  -0.38051104    1.9265231 
    8050   0.45846694  -0.89979344   0.06298047  -0.37872808    1.8595849 
    8100   0.45861055   -0.9023673  0.065723832   -0.3784151    1.8082458 
    8150   0.46593478  -0.90650437  0.059324427  -0.38163344    1.8132459 
    8200   0.45397318   -0.8941399  0.064450287  -0.37609474    1.7987726 
    8250   0.46778282  -0.90186296  0.062298616  -0.37217134    1.7445221 
    8300   0.43654725  -0.88120536   0.06743189  -0.37759001    1.9125266 
    8350   0.45126026  -0.89940912   0.06867034  -0.37985457    1.8903649 
    8400   0.44808951  -0.88397971  0.056834586  -0.37942902     1.918087 
    8450   0.45528346  -0.89207597  0.055405555  -0.38176636    1.8637505 
    8500   0.45544667  -0.89656348  0.061890349  -0.37960601    1.8433741 
    8550   0.45593736  -0.88692104  0.054364174  -0.37699945     1.922991 
    8600    0.4521156  -0.88345025   0.05484813  -0.37686328    1.8987513 
    8650   0.45057884  -0.90465038  0.073451501  -0.38099553     1.816334 
    8700   0.46015535  -0.90444621  0.067778971  -0.37689536    1.8468403 
    8750   0.45075736  -0.87953412   0.06023276  -0.36891963    1.9655281 
    8800   0.44293878  -0.88434731  0.061005907  -0.38077174    1.9787697 
    8850   0.45119001  -0.89492189  0.065704637  -0.37840324    1.8427589 
    8900   0.44907494   -0.8945665  0.069859754  -0.37600603    1.9004559 
    8950   0.45839537  -0.90030778  0.066660609   -0.3756338    1.8067508 
    9000   0.45868098  -0.89629387  0.063024433  -0.37497069    1.8349628 
    9050   0.45001535  -0.88255471  0.064958381  -0.36795599    1.9292702 
    9100   0.45474056   -0.8956062  0.064528877  -0.37671571    1.8119706 
    9150   0.45859067  -0.89250998  0.057136184  -0.37716528    1.9239382 
    9200   0.46482535   -0.8981808  0.055584858  -0.37815794     1.843036 
    9250   0.46106126  -0.89691753  0.057137339  -0.37910315     1.891814 
    9300   0.45987849  -0.89648582   0.05616143  -0.38082913    1.8974659 
    9350   0.46357115  -0.89562236  0.054645773  -0.37779174    1.8861661 
    9400   0.45088186   -0.8864713  0.062753947  -0.37321123    1.9274157 
    9450   0.45122966  -0.88963126  0.062321369  -0.37645626    1.9648682 
    9500         0.45  -0.86314657  0.056237101  -0.35728447    2.0717467 
    9550   0.46451974  -0.86891389  0.051866143  -0.35291511    2.0774137 
    9600         0.45  -0.89012749  0.065166326  -0.37533617    1.8256365 
    9650   0.44976887  -0.89081054  0.065395808  -0.37602067    1.8658941 
    9700   0.45795252  -0.90322526  0.068874009  -0.37678036     1.788567 
    9750   0.46763811   -0.9049034  0.061536117  -0.37611887    1.7847001 
    9800   0.45478924  -0.89208449  0.065176488  -0.37249776     1.863118 
    9850   0.45656298  -0.89278163  0.059486172  -0.37711295    1.8827378 
    9900   0.44820481  -0.88941649  0.062012892  -0.37957229    1.9740272 
    9950   0.45365762  -0.89107463  0.063346389  -0.37444867    1.8690491 
   10000     0.458251  -0.90267656  0.065406189  -0.37940124    1.8228393 
   10050    0.4524142  -0.89773571  0.059385665  -0.38631285    1.8847106 
   10100   0.44879438  -0.88661966  0.056407586  -0.38179169    1.9570391 
   10150   0.44653776  -0.88262565   0.05897196  -0.37748804     1.901458 
   10200   0.44105184   -0.8872672  0.069255671  -0.37732723    1.9058775 
   10250    0.4627886  -0.89313273  0.052547498  -0.37818229     1.892127 
   10300   0.45313946  -0.88531135  0.051931703   -0.3806178    1.9359473 
   10350   0.45866038  -0.89812943  0.060400944  -0.37945032    1.8674835 
   10400   0.45435453  -0.88688319  0.054127496  -0.37877979    1.9137742 
   10450   0.45924671  -0.89677677  0.054964183  -0.38294859    1.8537784 
   10500   0.44812838  -0.88796579  0.057646438  -0.38256441    2.0197343 
   10550   0.45154967  -0.89200931  0.060054271  -0.38078166    1.8646252 
   10600   0.45974368  -0.89652398   0.05621131  -0.38095211     1.881611 
   10650   0.44777856  -0.88797977  0.061454321  -0.37912004    1.9268958 
   10700    0.4585211  -0.89344989  0.056307029  -0.37900386    1.9467455 
   10750   0.44761955  -0.88353457  0.059990612  -0.37629742    1.9285597 
   10800   0.45873324  -0.88827058  0.049717336  -0.38020228    1.9253004 
   10850   0.44220898  -0.88487246  0.058118157  -0.38491383    1.9115232 
   10900   0.45729677  -0.90382841  0.059028193  -0.38788453      1.86174 
   10950   0.47100324  -0.91351996   0.06037377  -0.38253545    1.7707439 
   11000    0.4618533  -0.89342799  0.051564282  -0.38039529    1.9529251 
   11050   0.46106123  -0.90715315  0.062568421  -0.38390772    1.8025172 
   11100    0.4626168  -0.89925451  0.057284341  -0.37973888    1.7919323 
   11150   0.45020612  -0.89472517  0.060013591  -0.38488063     1.909058 
   11200   0.45581737  -0.89875221  0.062739375  -0.38057532    1.8118796 
   11250   0.45292102  -0.89208115  0.060132494  -0.37940507    1.8676685 
   11300         0.45  -0.90590756  0.056781469  -0.39950109    1.7575626 
   11350   0.43100782  -0.88954035  0.058319035  -0.40057267    1.8466855 
   11400    0.4443784  -0.89873164  0.054735845  -0.39998771    1.8055396 
   11450   0.44708983  -0.91144028  0.059417689  -0.40530534    1.7644223 
   11500   0.45320144  -0.91177032   0.06044834  -0.39849821    1.6944741 
   11550   0.43990622  -0.90265855  0.063378954  -0.39973997     1.753191 
   11600   0.43081421  -0.89669615  0.065047943  -0.40119301    1.8313438 
   11650   0.44351562  -0.90165188  0.060600026  -0.39790584    1.7890349 
   11700   0.46348063  -0.91663656  0.056973037  -0.39656913    1.5997317 
   11750    0.4298958   -0.8954592  0.064340783  -0.40158087     1.859103 
   11800   0.45264983  -0.90946125  0.059845131   -0.3973435    1.6778423 
   11850   0.44476733  -0.90472043  0.056611251  -0.40371249    1.7493309 
   11900   0.44328642  -0.91138005  0.070004554  -0.39845849    1.7176651 
   11950   0.44822796   -0.9022254  0.056952457  -0.39741851    1.7771601 
   12000   0.44250859  -0.90033206  0.057422644  -0.40076958    1.7942535 
   12050   0.45184142  -0.91351059  0.059150734  -0.40289497    1.7983423 
   12100   0.44433268  -0.90791356  0.063197728  -0.40075343    1.7912734 
   12150    0.4415377  -0.90776672  0.066453053  -0.40014391    1.7640159 
   12200   0.43579314  -0.89555851  0.057376903  -0.40275162    1.8638945 
   12250   0.45096249  -0.91169112  0.060693487  -0.40041095    1.7212361 
   12300   0.44549882  -0.91384842  0.063770355   -0.4049505     1.768627 
   12350    0.4347727  -0.90902654   0.06561779  -0.40899836    1.8812143 
   12400   0.44376096   -0.9071783  0.058629974  -0.40515717     1.812239 
   12450   0.44052772  -0.90019859  0.054812464  -0.40522551    1.8272497 
   12500         0.45  -0.90179549  0.066686603  -0.38548389     1.864411 
   12550   0.45876745  -0.90128945  0.060986902   -0.3819174    1.7937868 
   12600   0.46754023  -0.90840328  0.057532866   -0.3837198    1.8694385 
   12650   0.46040663  -0.90224607  0.055276387  -0.38694673    1.8894289 
   12700   0.46729183  -0.91341658  0.055857748  -0.39065641    1.8129742 
   12750   0.46583904  -0.90037698  0.054134106  -0.38079203    1.8318725 
   12800   0.46757748  -0.90642783  0.056925321  -0.38231468    1.7845033 
   12850   0.45926966  -0.89999184  0.067700684  -0.37340422    1.8494324 
   12900   0.44846432  -0.87409925  0.051111637  -0.37489702    1.9488715 
   12950   0.45789076  -0.89971941  0.057300446  -0.38490979    1.7881103 
   13000   0.44399276  -0.89133248  0.061663312   -0.3860464    1.9202685 
   13050   0.44644161  -0.88364823  0.056814154  -0.38076451    1.9676655 
   13100   0.45156424  -0.89131297   0.05942798  -0.38069706    1.8801563 
   13150   0.45803214  -0.90523996  0.061658888  -0.38593062    1.8813877 
   13200    0.4547191    -0.894321   0.05697715  -0.38300369    1.9365888 
   13250   0.45255689   -0.8978871  0.062481383  -0.38322595    1.8587624 
   13300   0.44791946  -0.89378035  0.061913387  -0.38432077    1.8765202 
   13350   0.45831254  -0.89754816  0.061205195  -0.37841236    1.8174925 
   13400   0.46124287  -0.90465005  0.066292325  -0.37749923    1.8065878 
   13450    0.4602798  -0.89604327  0.056547575  -0.37959946    1.7989176 
   13500   0.45641011  -0.89858268  0.066289644  -0.37626326    1.7481629 
   13550   0.45136213  -0.89983167  0.068869754  -0.37997592    1.9121457 
   13600   0.46241525  -0.89690896  0.055325667  -0.37955338    1.8085106 
   13650   0.45575673  -0.89864686  0.058700945  -0.38456898    1.8773033 
   13700   0.45385943  -0.90195019  0.061653878   -0.3868151    1.9177823 
   13750    0.4543788  -0.90047333  0.059183142  -0.38729003    1.8082764 
   13800         0.45  -0.91888142  0.057193579  -0.41206284    1.8302023 
   13850   0.45210504  -0.91138051  0.053088465  -0.40656376    1.7829101 
   13900   0.45071047  -0.91156406  0.058347835  -0.40288134    1.7321184 
   13950   0.45251527  -0.91105987  0.059549592   -0.3993721    1.7136484 
   14000   0.43910474    -0.902352  0.062377664  -0.40123551    1.7735586 
   14050    0.4467909  -0.91440635   0.05745358   -0.4105342    1.7651049 
   14100   0.44685422   -0.9066122  0.054754933  -0.40537543    1.8287253 
   14150   0.45247762  -0.91070901  0.054442995  -0.40416546    1.7225002 
   14200   0.44938173  -0.91634111    0.0564229  -0.41091097    1.7545324 
   14250   0.44271591  -0.90159157  0.059480108  -0.39976448    1.7858605 
   14300   0.44157927  -0.90448583  0.056320135  -0.40695441    1.8014818 
   14350   0.44290466  -0.89629503  0.050025517  -0.40373394    1.7996961 
   14400   0.44423742  -0.90054479  0.054968542  -0.40170903    1.8442644 
   14450   0.44260525  -0.89346177  0.053026554  -0.39819881    1.8570883 
   14500   0.43255047  -0.89230303  0.057139902  -0.40297312    1.9112526 
   14550    0.4372049  -0.90232415  0.062725428  -0.40275815    1.7574837 
   14600   0.45057449  -0.91164064  0.057909528   -0.4035321    1.7404748 
   14650   0.44804957  -0.90943477  0.057001614  -0.40475696    1.7974157 
   14700   0.45846248  -0.91728465  0.059446985  -0.39975724     1.710639 
   14750   0.44097551  -0.90514471  0.064752452  -0.39978423    1.7619111 
   14800   0.45056173  -0.90879333  0.059126325  -0.39948075     1.774938 
   14850    0.4462858  -0.91043876  0.061435777  -0.40308908    1.7420192 
   14900   0.45464461  -0.90661855  0.051530156  -0.40082265    1.6963977 
   14950   0.45744708  -0.91884999  0.063582156  -0.39820196    1.6882967 
   15000   0.45285593  -0.91826125  0.065002622  -0.40078008    1.6670327 
   15050   0.45055264   -0.9120321  0.061431804  -0.40042312    1.7136414 
   15100   0.44922513  -0.90941187  0.054672347  -0.40588875    1.7694996 
   15150   0.44549478  -0.90749113  0.062487677  -0.39987992    1.7968265 
   15200   0.46231553  -0.93052603  0.062070164   -0.4065256    1.5470662 
   15250   0.44926477  -0.90716601  0.060277144  -0.39799848    1.8178784 
   15300   0.46248923   -0.9197169  0.056164976   -0.4014481    1.7013171 
   15350    0.4403827  -0.90846757  0.068569987  -0.39988186    1.7116606 
   15400   0.45345586  -0.91756324  0.062475335  -0.40200992    1.7076536 
   15450   0.44694277  -0.91532883  0.070186802  -0.39857171    1.6230092 
   15500    0.4519056  -0.91218613  0.067410684  -0.39324643    1.6653398 
   15550   0.45373657  -0.91325869  0.057115639  -0.40278459    1.7160231 
   15600   0.43471754  -0.90511585  0.072446927  -0.39831365    1.7422972 
   15650   0.44994182  -0.90503334  0.058278423  -0.39718805    1.8488513 
   15700   0.44921963   -0.9079727  0.064250538  -0.39487688    1.7792283 
   15750   0.45854437  -0.91587986  0.059684054  -0.39803355    1.6505203 
   15800         0.45  -0.89237609  0.062919913  -0.37983118    1.9234805 
   15850   0.45836816  -0.90693942  0.071278141  -0.37767509    1.8066538 
   15900   0.45586398  -0.89151574  0.060048736  -0.37598291     1.888005 
   15950    0.4811506  -0.91217037  0.056879575  -0.37454115    1.8651539 
   16000   0.46230821  -0.90139047  0.060811225   -0.3786563     1.840729 
   16050   0.46059235  -0.90344481  0.064031649  -0.37920464    1.8921788 
   16100   0.46744616  -0.90569605  0.059234164  -0.37940526    1.8496844 
   16150   0.47496686  -0.91319377  0.061954304  -0.37666841    1.7621107 
   16200         0.45  -0.90862448  0.057624419  -0.40137506    1.7967435 
   16250   0.44416066  -0.89414783  0.055888407  -0.39446889    1.9154978 
   16300   0.45330091  -0.90865268  0.057021692  -0.39870782    1.8324542 
   16350   0.44859734   -0.9092369  0.062483125  -0.39853027    1.7007859 
   16400   0.44320867  -0.90519653  0.059681526  -0.40267568    1.8097753 
   16450   0.44439339  -0.90347101  0.060966909  -0.39848103    1.7442535 
   16500   0.44526534  -0.91199068  0.065884358  -0.40121204    1.7562962 
   16550   0.44116682  -0.90610446  0.062287515  -0.40301776    1.7427377 
   16600    0.4482838  -0.91968227  0.067377878  -0.40439416    1.7788426 
   16650   0.45120749  -0.91197344  0.061685236  -0.39945673    1.7230559 
   16700   0.43652362  -0.90508978  0.066831805  -0.40209812    1.7601044 
   16750   0.44480613  -0.91578107  0.064658507   -0.4066871     1.667726 
   16800         0.45   -0.8991393  0.066951392  -0.38256291    1.8207025 
   16850   0.45969674  -0.91301173  0.067888549  -0.38580952     1.731609 
   16900   0.46421243  -0.89510365  0.055294131  -0.37598394    1.8288508 
   16950   0.45623242  -0.89115631  0.060183183   -0.3751209    1.9008309 
   17000   0.45294974  -0.89406722  0.061868184  -0.37962676    1.8529668 
   17050   0.46453537  -0.90880781  0.064804474  -0.37985508    1.8063745 
   17100    0.4609243  -0.89050463  0.060056889  -0.36990755    1.9145942 
   17150   0.46432254  -0.90074301  0.059278073  -0.37752934    1.8167458 
   17200         0.45   -0.9203176  0.067728036  -0.40296457    1.7454141 
   17250   0.45884994  -0.92825491  0.067276881  -0.40251046    1.6034795 
   17300   0.44690608  -0.91432643  0.065604611  -0.40218817    1.7162543 
   17350    0.4411131  -0.90216623  0.062033312  -0.39938741    1.7714823 
   17400         0.45  -0.89121174  0.063915683  -0.37767106    1.9041484 
   17450   0.47062314  -0.90887094  0.060072734  -0.37856725    1.8151744 
   17500   0.46193175  -0.89803495  0.060189745   -0.3762984    1.7382342 
   17550   0.46132155  -0.90458019  0.066766224  -0.37687685     1.793545 
   17600   0.46624798  -0.90805355  0.060093572  -0.38210054    1.7794183 
   17650   0.46500277  -0.90402695  0.059633664  -0.37977802    1.8519317 
   17700     0.453189  -0.90225599  0.067322119  -0.38212252    1.8924872 
   17750   0.45206876  -0.88672139  0.060203146  -0.37482621    1.9507383 
   17800   0.45645921  -0.90132376  0.063191278  -0.38205366    1.8625088 
   17850   0.45804573   -0.9011347  0.060868346  -0.38260233     1.911467 
   17900   0.46475205  -0.90366114  0.059637507  -0.37965888    1.8545929 
   17950   0.45873093   -0.9094921  0.065555642   -0.3855878    1.8494609 
   18000   0.46205101  -0.91255808  0.067281089  -0.38361102     1.765723 
   18050   0.46441329  -0.90359842  0.061608338   -0.3779638    1.8755353 
   18100   0.45033838  -0.88774125  0.058921352   -0.3788568    1.8804608 
   18150    0.4522903  -0.88959835  0.063015789  -0.37466916    1.9271176 
   18200   0.46553161  -0.90632685  0.058191198  -0.38299199    1.7869297 
   18250   0.46367582   -0.9083556  0.067640809  -0.37742537    1.7286746 
   18300    0.4655953  -0.91133159  0.066868831  -0.37925545    1.7014128 
   18350     0.459729  -0.89976613  0.062731545  -0.37768869    1.8829567 
   18400    0.4573366   -0.8914236  0.057263642  -0.37720448    1.8662009 
   18450    0.4618548  -0.90351078  0.064004155  -0.37803671    1.8227055 
   18500   0.45943227  -0.90337303   0.06504062  -0.37928301    1.8517175 
   18550   0.46869607  -0.90799328  0.058525255  -0.38116254    1.7797867 
   18600   0.44310317  -0.89192885  0.072068288  -0.37712664    1.8783764 
   18650   0.45299422  -0.89223168  0.059881803  -0.37973315    1.8741106 
   18700   0.46643328  -0.90493188  0.058462925  -0.38042437    1.8683637 
   18750   0.45722188  -0.90295996  0.065739476  -0.38037962    1.8118314 
   18800   0.45618627  -0.90394457   0.06791914  -0.38021931    1.8442729 
   18850   0.45458659  -0.90069482  0.071243046    -0.375244    1.8202074 
   18900   0.45604525   -0.9115249   0.07352251  -0.38233717    1.7461745 
   18950   0.46728141   -0.9121573   0.06451511  -0.38075018     1.747878 
   19000   0.46274752  -0.89996206  0.062645072   -0.3749551    1.8031235 
   19050   0.46917004  -0.90031089  0.057806424   -0.3737254    1.7585731 
   19100   0.45121198  -0.90059383  0.066719823  -0.38303804    1.8178308 
   19150   0.46466478  -0.91672873   0.06859398  -0.38385719    1.7391379 
   19200   0.45576073  -0.90624002   0.07059205  -0.38026704    1.7841885 
   19250   0.46679185  -0.90764362   0.06757531  -0.37366545    1.6820588 
   19300         0.45  -0.91339446   0.06773896  -0.39603049    1.6410223 
   19350   0.45288728  -0.91551445  0.064495756  -0.39850882    1.7019687 
   19400   0.44909359   -0.9173855  0.070426673  -0.39823948    1.6838845 
   19450   0.45135036  -0.91077272  0.061112484  -0.39868601    1.7360334 
   19500   0.43708515  -0.89377214  0.056336767  -0.40071445    1.8233603 
   19550   0.46499357  -0.92247605  0.058700304  -0.39916966    1.6660839 
   19600   0.44322441  -0.91801158  0.069568924   -0.4055876    1.6997983 
   19650   0.44862417  -0.91550655  0.068040979  -0.39921526    1.7127325 
   19700   0.43271539  -0.88978831  0.057296161  -0.40013735    1.9148218 
   19750   0.44075684  -0.90218623  0.062369769  -0.39942692    1.7918854 
   19800   0.46267775  -0.91094512  0.055150564  -0.39350237     1.661653 
   19850   0.45048182  -0.91054989  0.063282656  -0.39716082     1.667023 
   19900   0.45086408  -0.91152874    0.0600933  -0.40094709    1.6733977 
   19950    0.4475156  -0.90605908  0.059549947  -0.39936646    1.7428567 
   20000   0.44964224  -0.90525943  0.057747961  -0.39824394    1.6843995 
   20050   0.44474219  -0.90280923  0.059512238  -0.39892543     1.764411 
   20100   0.44998336  -0.91405879  0.060133983  -0.40431643    1.7253413 
   20150   0.43708677  -0.90585768  0.068372232  -0.40076291    1.7350861 
   20200   0.45286091   -0.9114978  0.059519076   -0.3994952    1.6844643 
   20250   0.45064395  -0.89855193  0.050344289  -0.39793923    1.8332809 
   20300   0.44298468  -0.90098951  0.057012967  -0.40136102     1.854582 
   20350   0.43896816   -0.9005724  0.057428814  -0.40454123    1.7696667 
   20400   0.45704359  -0.90581904  0.053373039  -0.39578328    1.8007173 
   20450   0.44112446  -0.89474993  0.062836114  -0.39115696    1.8833703 
   20500   0.46271973  -0.92302181  0.061676464  -0.39901122    1.7034274 
   20550   0.44759907  -0.90873424  0.061826473  -0.39968169    1.8200264 
   20600   0.44228944  -0.89519488  0.056296861  -0.39697715    1.8814961 
   20650   0.45509406  -0.90600607  0.055946106  -0.39534515    1.7984959 
   20700   0.46222004  -0.90947118   0.05430938  -0.39332694    1.6640997 
   20750   0.46316061  -0.91737873  0.063245993  -0.39135809    1.7424037 
   20800   0.44692863  -0.89879644  0.057021009  -0.39521924    1.8073038 
   20850   0.45644399  -0.90176647  0.056043159   -0.3896597    1.7915578 
   20900   0.45739859  -0.90784674  0.058639555  -0.39218976    1.8175555 
   20950   0.46096109  -0.91025122  0.060763274    -0.388911    1.6543784 
   21000   0.43078514  -0.87822738  0.056248657  -0.39155257    1.9989999 
   21050   0.45933302  -0.91156714  0.050955295   -0.4016616    1.7363165 
   21100   0.44659475  -0.90808865  0.060540614  -0.40132544    1.7613135 
   21150   0.44555992  -0.90253034  0.062633764  -0.39470796    1.8008014 
   21200   0.46660325  -0.92468999   0.06025008  -0.39822549    1.6626635 
   21250   0.43894309  -0.90738693  0.070601771  -0.39820786    1.8219383 
   21300   0.46117812  -0.91613415  0.057544224  -0.39779612    1.7264058 
   21350   0.45585926  -0.90096794  0.053639939  -0.39184863    1.8180361 
   21400   0.44862622  -0.90867264  0.061072629  -0.39934764    1.7977665 
   21450   0.45192669  -0.91544303  0.064931586  -0.39896135    1.7476371 
   21500   0.44784144  -0.90629485  0.061808502   -0.3970181    1.7469013 
   21550   0.45546193  -0.90829691  0.060146982  -0.39306756     1.820049 
   21600   0.45473658  -0.90033619  0.051337927  -0.39464063    1.7166617 
   21650    0.4516061  -0.90924467  0.065205262  -0.39280965    1.7276741 
   21700   0.46094692  -0.91002922  0.055706408  -0.39376001    1.7776908 
   21750   0.46030273  -0.92078666  0.067272027  -0.39359549    1.6748111 
   21800   0.45058543  -0.90616705  0.060112678  -0.39584442    1.7705625 
   21850   0.43052523    -0.891182  0.062456718  -0.39855883    1.9005693 
   21900   0.46241462  -0.92817047  0.066421723  -0.39971947    1.5849762 
   21950   0.45334488   -0.9166791  0.062424664  -0.40128734     1.806211 
   22000   0.45762153  -0.91665753   0.05806249  -0.40135486    1.6708019 
   22050   0.46541639  -0.91015927  0.052508354  -0.39262237    1.7543699 
   22100    0.4617623  -0.91748913  0.059310891  -0.39680075    1.7458129 
   22150   0.46340423   -0.9164906  0.058850629  -0.39462191    1.7444314 
   22200   0.45987321  -0.91311399  0.059533688  -0.39409033    1.6518728 
   22250   0.45278934  -0.90370637  0.061010629  -0.39028372    1.7239716 
   22300   0.44131064   -0.8913163  0.053960569  -0.39641285    1.8317858 
   22350   0.44675959  -0.90633315   0.06115974  -0.39878612     1.777013 
   22400   0.45345711  -0.90414811  0.056917865  -0.39415102    1.7121982 
   22450   0.44497187  -0.89441262  0.051026444  -0.39878511    1.7973312 
   22500   0.46007971  -0.91775842  0.061534212   -0.3965279     1.631915 
   22550   0.45293448  -0.91096287  0.054874579  -0.40353125    1.7842566 
   22600   0.45139636   -0.9199718  0.067650422  -0.40130118    1.6658596 
   22650   0.45699406   -0.9214166  0.058851474  -0.40595189    1.6809108 
   22700   0.44944469  -0.90752883  0.053708429  -0.40475024    1.7150569 
   22750   0.45122151  -0.90580223  0.061015647  -0.39394109    1.7134769 
   22800    0.4591278  -0.91451625  0.057754347  -0.39801671     1.710171 
   22850   0.45540093  -0.91223253  0.061723155  -0.39548795    1.7440586 
   22900   0.45952817  -0.92202593  0.062822223  -0.40005847    1.6450584 
   22950   0.44150607  -0.90552084  0.063958382   -0.4004243    1.7806623 
   23000   0.45751288  -0.90837911  0.055127666  -0.39611983    1.7285005 
   23050   0.45317288  -0.90892891   0.05474278   -0.4013909    1.7595226 
   23100   0.46791632  -0.92644848   0.05948318  -0.39943891    1.5785321 
   23150   0.44970561   -0.9194474  0.064843357  -0.40527318    1.6884781 
   23200   0.45071857  -0.90699754  0.060698946  -0.39595562    1.7539833 
   23250   0.45646477  -0.90997358  0.057101245  -0.39678796    1.7786761 
   23300   0.44296672  -0.90652138  0.064444864  -0.39947894    1.7639417 
   23350    0.4627671  -0.90594802  0.048703268   -0.3948633     1.711107 
   23400   0.44960307  -0.91284954  0.060736503  -0.40288463    1.7759316 
   23450    0.4629582   -0.9171806  0.054089313  -0.40051888    1.7801245 
   23500   0.45238933   -0.9182284  0.064091371  -0.40212469    1.6505981 
   23550   0.45055432  -0.90606792  0.059500015  -0.39638904    1.7118697 
   23600    0.4521999  -0.92007114  0.067568038  -0.40068003    1.6801175 
   23650   0.43457631  -0.89017645  0.062528363  -0.39343392    1.8338154 
   23700   0.44919842  -0.91426895  0.067995521  -0.39744934    1.7074402 
   23750   0.45377253  -0.90648389  0.048993513    -0.404096    1.7924082 
   23800   0.44616821  -0.89924538  0.057725002  -0.39572397    1.8111475 
   23850   0.45224414  -0.90540304  0.058117838  -0.39541793    1.7170373 
   23900   0.44294904  -0.89659651  0.057859829  -0.39615676    1.7936297 
   23950    0.4572431  -0.91481813  0.061243694  -0.39671236    1.7466961 
   24000   0.46728119  -0.92473751  0.058445034  -0.39940069    1.5547408 
   24050   0.45088208  -0.90406555  0.057490511  -0.39606869    1.8406201 
   24100   0.45654045   -0.9168948  0.058846814  -0.40188799    1.5824418 
   24150   0.44523447  -0.89760768  0.052625438   -0.4001188    1.8187068 
   24200   0.45672529  -0.90935497  0.057525835  -0.39548445     1.734834 
   24250   0.45499107  -0.90867157  0.062620661  -0.39143901    1.7168631 
   24300         0.45  -0.92672609  0.061354383   -0.4157467    1.6179303 
   24350   0.45486052  -0.94088425  0.065228429  -0.42117435    1.6261674 
   24400   0.44314068  -0.91749919  0.059176365  -0.41555143     1.679955 
   24450   0.43292163  -0.91791216  0.069674857  -0.41567645    1.6606307 
   24500   0.43841566   -0.9121779   0.06056503  -0.41356255    1.7013822 
   24550   0.44197724  -0.92220739   0.06221994  -0.41837853    1.5942804 
   24600   0.44153896  -0.91567148  0.059572182  -0.41492829    1.6797633 
   24650   0.43934423  -0.92069267  0.063601297  -0.41811326    1.6216282 
   24700    0.4338057  -0.90881575   0.05886214  -0.41650941    1.6500743 
   24750   0.45284925  -0.92108772  0.053256533  -0.41535932    1.6141514 
   24800   0.43615892  -0.90927166   0.05535213  -0.41812408    1.7165158 
   24850   0.44008365  -0.91476394  0.055970253  -0.41907677    1.6906371 
   24900   0.43558797  -0.91207907  0.064084288  -0.41276981    1.7426369 
   24950   0.43382875  -0.90772241  0.050056312  -0.42419888    1.7661283 
   25000   0.43368578  -0.91398298  0.058353047  -0.42230556    1.6821175 
   25050   0.43330559   -0.8992768  0.053825563  -0.41250674    1.7339754 
   25100   0.44798418  -0.92390214   0.05699868   -0.4192926    1.6224442 
   25150   0.42972682  -0.90811982  0.064484742  -0.41426636    1.7691594 
   25200   0.44995254  -0.92242483  0.056360917  -0.41648633    1.6853389 
   25250   0.44536719   -0.9246139  0.060246006  -0.41937184     1.567226 
   25300   0.44068837  -0.91691332  0.059445843  -0.41714634    1.6331884 
   25350   0.45290936  -0.92177452  0.052372041  -0.41687054    1.6311893 
   25400   0.44704377  -0.92382992  0.061912504  -0.41524619    1.5929218 
   25450   0.44541946  -0.92718016  0.061691203  -0.42044067    1.6738888 
   25500   0.44463535   -0.9149264  0.059816695  -0.41084488    1.6704343 
   25550   0.45832595  -0.93313185   0.06114611  -0.41404173     1.529586 
   25600         0.45  -0.90843443  0.064338271  -0.39447116    1.6362612 
   25650   0.45214201  -0.90940961  0.063953038  -0.39369134    1.8096612 
   25700   0.45819032  -0.91013322  0.056675667  -0.39564905    1.8130684 
   25750   0.45734541  -0.91207519  0.059002379  -0.39610852    1.7699446 
   25800   0.45860636  -0.90671922  0.053060354  -0.39543467    1.7877703 
   25850   0.46151182  -0.91423251  0.060684654  -0.39242063    1.6847725 
   25900   0.45727901  -0.91683141  0.065491906  -0.39444156    1.6970627 
   25950   0.46420955  -0.90990928  0.054302708  -0.39178386    1.6500534 
   26000   0.46872612  -0.91599668  0.058007608  -0.38965356    1.6207607 
   26050   0.46141035  -0.91557466  0.061848563  -0.39270026    1.6675855 
   26100   0.45445494  -0.90744533   0.06681366  -0.38655545    1.7252698 
   26150   0.45411554  -0.91203547  0.063981368  -0.39431699    1.6787028 
   26200   0.45597309  -0.90958502  0.057919764  -0.39607215    1.7503396 
   26250    0.4515194  -0.89916209  0.057856183  -0.39016277    1.7383115 
   26300   0.45977683  -0.90589316  0.054600398  -0.39189908    1.7310782 
   26350   0.45859583   -0.9144617  0.060397279  -0.39585076    1.6552083 
   26400   0.43757416  -0.89487394  0.060858305  -0.39680612    1.9021075 
   26450   0.45891118  -0.91886104  0.062159391   -0.3981729    1.6432608 
   26500   0.45370425  -0.91285524  0.064756029  -0.39477305    1.7325386 
   26550   0.45368192  -0.90766849  0.062530679  -0.39183397    1.7176658 
   26600   0.44129175  -0.89893776  0.064413562  -0.39360019    1.8024744 
   26650   0.46056143  -0.91246516  0.055743582  -0.39654395    1.8077235 
   26700   0.46658679  -0.91142461  0.055765875  -0.38946076    1.6916425 
   26750   0.46773034  -0.92437832  0.063955056   -0.3930827    1.6606973 
   26800   0.45577342  -0.90967779  0.059906342  -0.39437784    1.7987122 
   26850   0.46233576  -0.92336057  0.058741166  -0.40266893    1.7424029 
   26900   0.45117888  -0.90093838  0.055549285   -0.3945862    1.8884548 
   26950   0.45111869   -0.9042417  0.062372495  -0.39112645    1.7823325 
   27000         0.45  -0.91562336  0.056429346  -0.40956901    1.6631818 
   27050   0.44708884  -0.92151299   0.05993556  -0.41486116    1.6504633 
   27100   0.44100662  -0.90799116  0.060432846  -0.40691919    1.6552959 
   27150   0.45368038  -0.92351602   0.05898219  -0.41123152    1.5437932 
   27200   0.45192376   -0.9251311   0.06611201  -0.40747193    1.6277317 
   27250    0.4495167  -0.92298184  0.062918125  -0.41092162    1.6350757 
   27300   0.45866797  -0.92325578  0.059099957  -0.40587008    1.5928219 
   27350   0.44075835  -0.90588301  0.057207942  -0.40828402    1.7345455 
   27400   0.45045289  -0.91739007  0.056181254  -0.41113131    1.6987231 
   27450   0.44465301  -0.90881844  0.053390929  -0.41114504     1.821189 
   27500   0.44432922  -0.91166912  0.062156703  -0.40555346    1.7412136 
   27550   0.46100477  -0.92775652  0.059732594  -0.40740332    1.5827537 
   27600   0.44266139  -0.91630674  0.067744845   -0.4062694     1.651631 
   27650   0.45665822  -0.92485902  0.058175565  -0.41040578    1.6510001 
   27700   0.44395346  -0.91419935  0.058094291  -0.41252155    1.6861894 
   27750   0.43021472  -0.90402255  0.061627342  -0.41253899    1.6702707 
   27800   0.43938999  -0.91759548  0.063720343   -0.4148513     1.630577 
   27850   0.43841504  -0.92012133  0.065993045  -0.41607859     1.613858 
   27900   0.45447047  -0.92885782  0.060012072  -0.41475401    1.6356629 
   27950   0.42520212  -0.90573955   0.06548525  -0.41540651    1.6739052 
   28000   0.46092743  -0.93006131  0.056377365  -0.41314062    1.5871895 
   28050   0.44716077   -0.9136207   0.05525095  -0.41158161    1.5670067 
   28100   0.43500998   -0.9071345  0.061983983  -0.41050305    1.6540893 
   28150   0.45105832  -0.93214085  0.062364659  -0.41909376      1.56763 
   28200   0.44807087  -0.92484322  0.059784312  -0.41736143    1.5983669 
   28250   0.44888556  -0.92143608  0.054093203  -0.41883139    1.6327488 
   28300   0.43941908  -0.91213328  0.056811918  -0.41626846    1.6694403 
   28350   0.43440118  -0.91884754    0.0729822  -0.41182616    1.5944283 
   28400   0.45040445  -0.93330174  0.068612411  -0.41466021    1.5581744 
   28450    0.4367534  -0.90600946  0.056762473  -0.41285754    1.6558183 
   28500   0.45130245  -0.91539469  0.053605222   -0.4108631    1.6131445 
   28550   0.44339453  -0.91918269  0.059402871  -0.41675479    1.6224703 
   28600   0.44849812  -0.92005342  0.054325875  -0.41760317    1.6278795 
   28650   0.44500122  -0.91784715  0.053217995  -0.41999877    1.7575154 
   28700   0.44875608  -0.92029321  0.051770306  -0.42014078    1.6280904 
   28750   0.45284474    -0.925902   0.05460883   -0.4188258    1.5693154 
   28800   0.44104666  -0.92950997  0.068187461  -0.42064339    1.6070763 
   28850   0.44131539  -0.91833284  0.057808036  -0.41957718    1.7558596 
   28900   0.44194841  -0.90684332  0.055381493   -0.4098817    1.7127362 
   28950   0.44481662  -0.91568736  0.057188213  -0.41405321    1.6961066 
   29000   0.43982318  -0.91177909  0.060697509  -0.41162492    1.6830918 
   29050    0.4331142  -0.90289631  0.056438801  -0.41370424     1.724537 
   29100   0.43012723  -0.90816046  0.060479824  -0.41791185     1.776836 
   29150   0.43301535  -0.91431208  0.060209189  -0.42144839    1.7485382 
   29200   0.43492696  -0.91355177  0.064171699  -0.41481555    1.6671153 
   29250   0.44301933  -0.91742578  0.063599547  -0.41117609    1.6135069 
   29300   0.44801752  -0.93406487  0.060142889  -0.42627781    1.5572453 
   29350    0.4488182  -0.92226204  0.058802237  -0.41501562    1.5807086 
   29400   0.45606214  -0.92218041  0.054614609  -0.41188371    1.4982845 
   29450   0.43842291  -0.90896546  0.054802921  -0.41610498    1.6946455 
   29500   0.44295568  -0.91770595  0.058380259  -0.41673914    1.6314914 
   29550   0.44714205  -0.92111312  0.055326038  -0.41901765    1.6877689 
   29600   0.43832489  -0.91862979  0.069955406  -0.41071477    1.5751678 
   29650   0.43821615  -0.90790859   0.05156742  -0.41849021    1.7291112 
   29700   0.44255523  -0.90931447  0.051605096  -0.41552294    1.7005653 
   29750   0.43666152  -0.91903385  0.059037476  -0.42369874    1.6191985 
   29800   0.44166333  -0.91825524  0.058712874  -0.41824709    1.6420902 
   29850   0.45592448  -0.92252205   0.05801135  -0.40896616      1.52239 
   29900   0.43266718  -0.90155648  0.059548971  -0.40970088    1.7357272 
   29950   0.44813556  -0.91645535  0.057854032  -0.41083921    1.5993527 
   30000         0.45  -0.89812778  0.060308679   -0.3881941     1.790498 
   30050   0.45971466  -0.89967184  0.058426567  -0.38191372    1.8115714 
   30100   0.44960944  -0.89594632  0.061017522  -0.38569403    1.8396948 
   30150   0.46816276  -0.90228084  0.056682078  -0.37782614    1.7435476 
   30200   0.46307188  -0.89806957  0.054064511  -0.38131907     1.786257 
   30250   0.45881471  -0.91082671  0.071053374  -0.38134098    1.7529274 
   30300         0.45  -0.92082447  0.061429374   -0.4097701     1.691292 
   30350   0.45270451   -0.9152118  0.054201612  -0.40868294     1.644678 
   30400     0.454761  -0.92734882  0.064308242  -0.40865855    1.5647949 
   30450    0.4354091  -0.90830294   0.06199703  -0.41125966     1.730151 
   30500   0.44417426  -0.91128973  0.059747437  -0.40773818    1.6667263 
   30550   0.44326338  -0.91622932  0.066066347  -0.40726898    1.6593796 
   30600   0.46096926  -0.91923055  0.049784143  -0.40886128    1.6539631 
   30650   0.44433224  -0.91302132  0.058510295  -0.41054906    1.7043754 
   30700   0.44733666  -0.91221688   0.05826898  -0.40698402    1.6204426 
   30750   0.44156654  -0.91577569   0.06849003  -0.40608709    1.6816619 
   30800   0.44075272  -0.91092918  0.058702537  -0.41184122     1.747223 
   30850   0.45390562  -0.92624729  0.063289776  -0.40943015    1.5777291 
   30900   0.46049256  -0.92698731  0.059109661  -0.40776883    1.6048129 
   30950   0.45833218  -0.91904979  0.052553569  -0.40854599    1.6634008 
   31000   0.44975301    -0.916647  0.056704644  -0.41056414    1.7559214 
   31050   0.44984153  -0.91557298  0.055637974  -0.41046834    1.7752484 
   31100   0.45079752  -0.91968733   0.05812278  -0.41114269    1.7117526 
   31150   0.45185309  -0.91880728  0.061557347  -0.40577339    1.6162003 
   31200   0.44545229  -0.92065328  0.065728296  -0.40984391    1.6827031 
   31250   0.45417747  -0.92831322  0.059954278  -0.41455995    1.5716945 
   31300   0.43654598  -0.90008159  0.055383433  -0.40851596    1.7190502 
   31350   0.44746642  -0.91458135  0.058738515  -0.40874931    1.6199767 
   31400     0.441755  -0.91088227  0.060616026  -0.40887937     1.770288 
   31450   0.45517554  -0.91964587  0.057633699  -0.40721595     1.643903 
   31500   0.44947911  -0.92273437  0.066587069  -0.40704276    1.5942066 
   31550   0.44405261   -0.9179225  0.064187838   -0.4100521    1.6390201 
   31600   0.44848644  -0.92366291  0.062993225  -0.41255698     1.696612 
   31650   0.44523372  -0.91789518  0.062068346  -0.41096414    1.7457791 
   31700   0.46178068  -0.93212887  0.061023699  -0.40970931    1.5659741 
   31750   0.44841222  -0.92514649   0.06588986  -0.41121809    1.6496977 
   31800   0.46020096   -0.9154817  0.051555639  -0.40410861    1.5762188 
   31850   0.44053539  -0.90040356  0.056439475  -0.40379581    1.6536592 
   31900   0.43432369  -0.89515414  0.052145847  -0.40904654    1.7882463 
   31950   0.45537161  -0.92515077  0.055700866  -0.41445777    1.6935985 
   32000    0.4592483   -0.9237194  0.060735992  -0.40411781    1.5161111 
   32050   0.43712565  -0.91695575  0.064245469  -0.41594891    1.7232604 
   32100   0.45121385  -0.93025542  0.070369044  -0.40904854    1.5118356 
   32150   0.45630108  -0.93431781  0.071012737  -0.40738424    1.4961527 
   32200   0.43512252  -0.90552007  0.059583053   -0.4111771    1.7417269 
   32250   0.45082901   -0.9186054  0.059804402  -0.40834768    1.5910831 
   32300   0.44320871  -0.90470603  0.054990181  -0.40687648    1.7140977 
   32350   0.44369001  -0.91631425   0.06360905  -0.40938493    1.6578822 
   32400   0.45482795  -0.91344954  0.060067652  -0.39893297    1.6055237 
   32450   0.46219888  -0.92765317  0.062969939  -0.40286952    1.5016614 
   32500   0.45910809  -0.91974578   0.05932739  -0.40169289    1.5776086 
   32550   0.43879083  -0.90661675  0.060930898  -0.40726068    1.6358718 
   32600   0.45251135  -0.91560118  0.058469812  -0.40499711    1.6343859 
   32650   0.44670949  -0.91038357    0.0564193  -0.40762704    1.7008061 
   32700   0.45609654  -0.92963722  0.064348213  -0.40957255    1.5713951 
   32750   0.45259371  -0.92163463  0.060744202  -0.40867388    1.6857714 
   32800   0.43502228  -0.91017824  0.069533164  -0.40598531    1.6786482 
   32850   0.45306554  -0.91841279  0.056009819  -0.40971499    1.5937052 
   32900   0.45651832  -0.92520456  0.061465492  -0.40760117    1.5560708 
   32950     0.440707  -0.90916466  0.058200015   -0.4106249    1.7469353 
   33000    0.4513272  -0.92127416  0.060127841  -0.41019523    1.6503338 
   33050   0.44918008  -0.91737918  0.056152612  -0.41242081    1.6637756 
   33100   0.45080657  -0.93161774  0.061153584  -0.42003326    1.5603809 
   33150   0.44573323  -0.91795062  0.060447271  -0.41214156    1.6427318 
   33200   0.44637044  -0.91465207  0.060231578  -0.40842203    1.6313278 
   33250   0.43450553  -0.90901588  0.058482312  -0.41639012    1.8296149 
   33300   0.44003167   -0.9085345  0.054461882  -0.41440764    1.8246675 
   33350   0.45383504  -0.91790285  0.056146303   -0.4082997    1.7051339 
   33400   0.45716481  -0.92778072  0.060452065  -0.41054482    1.5925131 
   33450   0.46317629   -0.9275007  0.058756004  -0.40595439    1.5643044 
   33500    0.4461844  -0.91081184  0.055487966   -0.4095113    1.7809834 
   33550   0.45021634  -0.92260395  0.059093719  -0.41366906    1.7159713 
   33600   0.44250886  -0.91338378  0.057613898  -0.41362977    1.7523895 
   33650   0.44564841  -0.91156148   0.05610712  -0.41017732    1.7293137 
   33700   0.44350417  -0.91465497  0.059312782   -0.4122076    1.7051711 
   33750    0.4502658  -0.92024221  0.058982259  -0.41136937     1.735331 
   33800   0.46044226    -0.924323  0.058353685  -0.40591076    1.6051116 
   33850   0.46974342  -0.93918946  0.061392028  -0.40844547    1.5212068 
   33900   0.45752162  -0.93542016  0.063634489  -0.41464532    1.5928375 
   33950   0.45104903   -0.9253046   0.05997379  -0.41465766    1.6411126 
   34000   0.44776608  -0.92324812  0.064743129  -0.41111205    1.6314879 
   34050   0.45019722   -0.9194396  0.060129032  -0.40948851    1.6450054 
   34100   0.44528642  -0.91581754  0.062925622  -0.40797657    1.6459256 
   34150   0.43911114  -0.90406783  0.062409668  -0.40291295    1.6673401 
   34200   0.45900219  -0.93266623  0.066045008  -0.40800153    1.5515703 
   34250   0.45101244  -0.91476267  0.056033228  -0.40809285    1.6534329 
   34300   0.44075612  -0.91490373  0.065775077  -0.40873983    1.6933944 
   34350   0.45237322  -0.91888232  0.058854432  -0.40803165    1.6360279 
   34400   0.43727014   -0.9094207  0.065437351   -0.4070776    1.7305876 
   34450   0.45470019  -0.92082929  0.060428714   -0.4060793    1.5693942 
   34500   0.45388761  -0.92667275  0.065459098  -0.40770429    1.5530385 
   34550   0.44704596  -0.91719408  0.063512329  -0.40700833    1.6496842 
   34600   0.43515115  -0.89870871  0.057282186    -0.406638     1.734437 
   34650   0.43990222  -0.90979513  0.061772511  -0.40848699    1.7011253 
   34700   0.43712548   -0.9142468  0.073573509  -0.40391209    1.6382201 
   34750   0.46543933  -0.93411647  0.057935771  -0.41112923    1.5509445 
   34800   0.44525952  -0.91216791   0.05878339  -0.40849605    1.7439677 
   34850   0.44461184  -0.90845867  0.057004503  -0.40721283    1.7638326 
   34900   0.45272588  -0.92884665  0.064720269  -0.41177777    1.6431322 
   34950   0.45719348  -0.92432779  0.054217957  -0.41329735    1.6521359 
   35000   0.43835248  -0.90749563  0.057159953  -0.41234849    1.7557023 
   35050    0.4418863  -0.92030543  0.065282699  -0.41350467    1.5995986 
   35100   0.43944269  -0.91138492  0.063223341   -0.4090851    1.7187624 
   35150   0.45100703  -0.92490711  0.060689487  -0.41358643    1.6766989 
   35200   0.45839815  -0.93274007  0.059787965  -0.41493596    1.5870109 
   35250   0.44435853  -0.90644027  0.057999033  -0.40445301     1.658005 
   35300   0.45043114  -0.92392914  0.061055753  -0.41281761    1.6303958 
   35350   0.44308736   -0.9106666  0.058460779   -0.4094877    1.7132309 
   35400   0.44026378  -0.91275232   0.06084795  -0.41200747    1.6983365 
   35450   0.45496171  -0.91672281  0.052102425  -0.41003781    1.6861434 
   35500   0.44996703  -0.92261767  0.059008893  -0.41401671    1.6552164 
   35550     0.430826  -0.90440318  0.062751698  -0.41118451    1.7899268 
   35600   0.45065793    -0.924279  0.064422352  -0.40957427    1.6247557 
   35650   0.44392684   -0.9190109  0.060568258  -0.41488574    1.6793815 
   35700   0.44516672  -0.91888174  0.061780878  -0.41230511    1.6608908 
   35750   0.44878388  -0.92194518  0.059394042  -0.41414124    1.5797333 
   35800   0.43992962  -0.91239442  0.067554209  -0.40527721    1.6256847 
   35850   0.43248734  -0.91111103  0.066512064  -0.41247204    1.7029223 
   35900   0.43561123  -0.91877812  0.067758254  -0.41577165    1.5861944 
   35950   0.44039402  -0.91744453  0.063747959  -0.41366954    1.6452542 
   36000   0.43542324  -0.90143682  0.054815265  -0.41156117    1.7497768 
   36050   0.44744591  -0.92475744  0.061718408  -0.41596599    1.6377117 
   36100   0.44673338  -0.92229263  0.061091706  -0.41483982     1.636711 
   36150   0.45115696  -0.91032628  0.050233437  -0.40931184    1.6754224 
   36200   0.45204593  -0.91321302   0.04641563  -0.41512816    1.6596823 
   36250   0.42339361  -0.89210832  0.056733165  -0.41233438    1.8413683 
   36300   0.43638177  -0.90994461  0.057998786   -0.4159277    1.7613789 
   36350   0.45383165  -0.92059656  0.061577414  -0.40556568    1.6557444 
   36400   0.43559284  -0.90659478   0.05819989  -0.41316504    1.7555005 
   36450   0.43815128  -0.90778231    0.0577459  -0.41225025    1.7008565 
   36500   0.44076559  -0.91120076  0.062508973   -0.4082935    1.6877987 
   36550   0.45531005  -0.92936143  0.064272403  -0.41015841    1.5150216 
   36600   0.45154137  -0.92329495  0.064953957  -0.40717591    1.5512885 
   36650   0.45011079  -0.91655277    0.0570569  -0.40976018    1.6457069 
   36700   0.45684622  -0.92675252  0.060253016  -0.41003398    1.6003784 
   36750   0.45500715  -0.92510736  0.065971379  -0.40450801    1.5594971 
   36800   0.46259242  -0.92865097  0.063128091  -0.40331596    1.5836109 
   36850   0.45176358  -0.92943394  0.067131397  -0.41091543    1.5550977 
   36900   0.45985405  -0.92016581   0.04991907   -0.4107759    1.7142231 
   36950   0.45177685  -0.91264868  0.056873437  -0.40437487    1.6005169 
   37000   0.44139521  -0.90195952  0.058698514  -0.40223362    1.7720168 
   37050   0.44819748  -0.90772494  0.055608642  -0.40429232    1.7229466 
   37100   0.44178564  -0.91340704  0.062689573  -0.40929999    1.6996698 
   37150   0.44560502  -0.91309165  0.058708029  -0.40914994    1.6984345 
   37200   0.45167099   -0.9243444  0.059379851  -0.41366995    1.6647734 
   37250   0.44717103   -0.9051701  0.050325618  -0.40804609    1.7680862 
   37300   0.45415553   -0.9219234  0.059952099  -0.40819423    1.6564029 
   37350   0.45586075  -0.92462916  0.058744347  -0.41040395    1.6647897 
   37400   0.45107205  -0.92419681  0.062596005  -0.41090465    1.6461744 
   37450   0.43612903  -0.91003821  0.061902172  -0.41237045    1.7971797 
   37500   0.45082003  -0.92798436  0.069953515  -0.40758649    1.5848154 
   37550   0.44765724  -0.92259335  0.064918728  -0.41039043    1.6115651 
   37600    0.4516035  -0.92154191  0.061389623  -0.40892512    1.6369236 
   37650    0.4408973  -0.91032566  0.063366475   -0.4064293    1.6928463 
   37700   0.44376051  -0.91401157  0.061379105  -0.40924176    1.7260782 
   37750    0.4445625  -0.91298244  0.059595187  -0.40919522    1.7716978 
   37800   0.44899223  -0.91791896  0.062319874  -0.40698102    1.7040437 
   37850   0.45094133   -0.9226403  0.062930364  -0.40914439    1.6447488 
   37900   0.45633771    -0.917852  0.052456133  -0.40943844    1.6834239 
   37950   0.45030176  -0.90617603  0.046405404  -0.40984411    1.7451014 
   38000    0.4374693  -0.90209984  0.057578168  -0.40741693    1.8538983 
   38050   0.46064627  -0.93321185  0.063072104  -0.40987735    1.6186432 
   38100   0.45289571  -0.91827883  0.058404911  -0.40735561    1.6693298 
   38150   0.44664307  -0.91917412  0.062399579  -0.41050368    1.6196796 
   38200   0.45042665  -0.92259146  0.063911062   -0.4086291    1.6482658 
   38250   0.45717739  -0.92711346  0.060333136  -0.40998392    1.6128772 
   38300   0.43577186  -0.91896844  0.071521138  -0.41203859    1.6973324 
   38350   0.43898654   -0.9093656  0.066352506  -0.40439238    1.7087924 
   38400   0.43685374  -0.91101477  0.059441087  -0.41508398    1.6621792 
   38450   0.43300606  -0.90707461  0.063687421  -0.41074196     1.673272 
   38500   0.45259028  -0.92561621  0.059904877  -0.41349821    1.6150919 
   38550   0.44931381   -0.9206054  0.064754146  -0.40691187    1.6384578 
   38600   0.45566294  -0.92954503  0.062100098  -0.41216171    1.5300556 
   38650   0.44159663  -0.91400402  0.063989168  -0.40878622    1.7078803 
   38700   0.44132953  -0.91079579  0.062713622  -0.40712041    1.6938358 
   38750   0.45403261  -0.91727929  0.052701114  -0.41092393    1.6642829 
   38800   0.44396613  -0.92550935  0.069716236  -0.41219695    1.5801341 
   38850   0.44667101  -0.91787129   0.06064123  -0.41093127    1.6430953 
   38900   0.44224608  -0.91503963  0.064126841  -0.40903525    1.6354265 
   38950   0.43210181  -0.90486347  0.062104819  -0.41101693    1.8039563 
   39000   0.46040242  -0.93128799  0.058690502  -0.41257874    1.5614006 
   39050    0.4414746  -0.90862711  0.056430979  -0.41108943    1.7175345 
   39100   0.44671301   -0.9149095   0.05743099  -0.41113776    1.6988193 
   39150   0.43935356  -0.92237295  0.069575666  -0.41380986    1.6417438 
   39200   0.44002798  -0.91890669  0.058836547  -0.42040885    1.7219565 
   39250   0.44991058  -0.92800145  0.061551256  -0.41691454    1.6646271 
   39300   0.43510204  -0.91321697  0.062603269  -0.41587425    1.7134589 
   39350   0.44328247  -0.91540697  0.053600155  -0.41889375    1.7350858 
   39400    0.4489584  -0.91643938  0.051626279  -0.41622883    1.6352905 
   39450   0.44277746  -0.90743629   0.05529809  -0.40972972    1.7779183 
   39500   0.43454887  -0.90832417  0.060820157  -0.41331726     1.736948 
   39550   0.43779949  -0.90056698  0.053248912  -0.40988341    1.7638956 
   39600   0.45800876  -0.92904535  0.053223854  -0.41819441    1.6230928 
   39650   0.44758545  -0.91916265  0.058361915  -0.41358827    1.7263098 
   39700   0.44043369  -0.92520161  0.069058709  -0.41607624     1.637155 
   39750   0.44711533  -0.92283998   0.05931987  -0.41677738    1.6656769 
   39800   0.44667455  -0.91319915  0.052810382  -0.41408646     1.741371 
   39850   0.44203004  -0.91409316  0.060232158  -0.41219931    1.7341129 
   39900   0.44709368  -0.90858816  0.053884581  -0.40798248    1.7490838 
   39950   0.44980098  -0.92100941  0.063258389  -0.40832488    1.6412418 
   40000   0.44863073  -0.92122605  0.062947901  -0.41002128     1.673081 
   40050   0.45490075  -0.92684667  0.059923941  -0.41240107     1.617021 
   40100   0.43136829  -0.90759307  0.068548497  -0.40803576    1.7107153 
   40150   0.45066984  -0.91898118  0.057974802   -0.4107121    1.6487538 
   40200   0.45299337  -0.92318721  0.056725616  -0.41384572    1.7061048 
   40250   0.45727335      -0.9197  0.055206291  -0.40760142    1.6882208 
   40300   0.45526515  -0.91708123  0.053469673  -0.40872579    1.6967285 
   40350   0.45620476  -0.92822747  0.057059139  -0.41534374    1.6343823 
   40400   0.45746706  -0.92890679  0.059442513  -0.41237844    1.5527652 
   40450   0.45859952  -0.93316464  0.060229605  -0.41471768    1.5189883 
   40500   0.45415214  -0.92613017  0.062203567  -0.41015292    1.7091467 
   40550   0.44538864  -0.92268651  0.062513662  -0.41515536    1.6854775 
   40600   0.44096091   -0.9116973  0.060073162  -0.41103069    1.6616218 
   40650   0.46099218  -0.92517231  0.056914486  -0.40764981    1.5927747 
   40700   0.44165161  -0.91479352  0.061943505  -0.41156645    1.6963891 
   40750   0.45459544  -0.92154774   0.05625504  -0.41107609    1.6636165 
   40800   0.44796486  -0.91580711  0.060276181  -0.40793937    1.6853223 
   40850   0.46463513  -0.92192268  0.051578425  -0.40609632    1.6234751 
   40900   0.45962186  -0.92909752  0.064942197  -0.40491647    1.5164198 
   40950   0.46081146  -0.93008416  0.059112694  -0.41054401    1.6254242 
   41000   0.44591759  -0.92000365  0.064745929  -0.40971173    1.6207391 
   41050   0.44211495  -0.90920176  0.056281404  -0.41117384      1.72673 
   41100   0.44139714  -0.90871958  0.055933274    -0.411757    1.7145627 
   41150   0.45458023  -0.92190711  0.056305521  -0.41140017    1.6554931 
   41200   0.44682517  -0.90864725  0.058960332   -0.4032341    1.7028776 
   41250   0.45461862  -0.92129428  0.058481799  -0.40857271    1.6428663 
   41300   0.44780753  -0.91703322   0.06142757  -0.40817129    1.7439249 
   41350   0.45261073   -0.9219171  0.057566339  -0.41211721    1.6168187 
   41400   0.44840761  -0.91966399  0.061308465  -0.41032159    1.6298204 
   41450   0.44276485  -0.91861966  0.067304827  -0.40891895    1.6427221 
   41500   0.44976806  -0.91836791  0.066050462  -0.40292419    1.6504151 
   41550    0.4727647  -0.93677222  0.058740353  -0.40566114    1.5432831 
   41600   0.45346913   -0.9194125  0.061454368  -0.40486689    1.6447278 
   41650   0.43873242  -0.91677635  0.070033689  -0.40837585    1.6525905 
   41700   0.44988463  -0.91516703  0.056808981  -0.40884832    1.6462002 
   41750   0.45120312  -0.91983893  0.061786983  -0.40722483     1.570714 
   41800   0.45609855  -0.92540309   0.06173097  -0.40795365    1.5702469 
   41850   0.46012038  -0.92303086  0.059489955  -0.40380395    1.6783243 
   41900   0.45021286   -0.9150621   0.05971926  -0.40550516    1.6880374 
   41950   0.44911956  -0.91987135   0.06729561  -0.40383045    1.5874432 
   42000   0.44905058  -0.92765204  0.073440768   -0.4055349    1.5580917 
   42050   0.44516065  -0.91892797  0.067874325  -0.40626396    1.5919095 
   42100   0.45484526  -0.91943441  0.061856253  -0.40311194    1.6004292 
   42150   0.45165784  -0.92207545  0.065333175  -0.40546082    1.5474045 
   42200   0.43141818  -0.90368112  0.066815314  -0.40580714    1.7372718 
   42250   0.45102901  -0.92499651  0.068509669  -0.40583369    1.6010078 
   42300   0.44525568   -0.9075274  0.056797175  -0.40584559    1.7547226 
   42350   0.44951523   -0.9186411  0.059283927  -0.41021653    1.6533481 
   42400   0.44834334  -0.92017945  0.063296635   -0.4089131    1.7592266 
   42450   0.44807271  -0.91738293  0.060927697  -0.40875592    1.6206795 
   42500   0.45135197  -0.92121131  0.061569413  -0.40866605    1.6482578 
   42550   0.45836452  -0.91950194  0.056463767  -0.40505562    1.5796047 
   42600   0.44329568  -0.90708043  0.054952606  -0.40920155    1.7398128 
   42650   0.44818753  -0.90983269   0.05564763  -0.40637102    1.6366818 
   42700   0.45581714  -0.92707547  0.060792471  -0.41084571    1.4898475 
   42750   0.46695521  -0.94566348  0.062958408  -0.41613899    1.5096599 
   42800   0.45576189  -0.93238762  0.065004248  -0.41200128    1.6321969 
   42850    0.4418625  -0.92207031  0.069954022  -0.41062201    1.6575675 
   42900   0.44513514  -0.91926555  0.063949555   -0.4105518    1.6772209 
   42950   0.44811655  -0.92517198  0.065205146  -0.41222371    1.6001267 
   43000         0.45  -0.91168453  0.075231297  -0.38682824     1.641811 
   43050   0.44946939  -0.90185094  0.063699883  -0.38905623    1.6568481 
   43100   0.45037998  -0.90394186  0.062638745  -0.39129845    1.7673652 
   43150   0.45293542  -0.90973709   0.06409082   -0.3930883    1.7535724 
   43200   0.45393006  -0.89881628  0.055051112  -0.39021337    1.8171907 
   43250   0.45388732  -0.91981604   0.06926151  -0.39704544    1.5919085 
   43300   0.44772337  -0.90695061  0.071033304  -0.38856704    1.8161852 
   43350   0.44816694   -0.8948629  0.056805714  -0.39026372    1.8046449 
   43400   0.45147149  -0.89783183  0.053971156   -0.3927654    1.7688022 
   43450   0.45747181   -0.8970313  0.053436702  -0.38650401    1.7546584 
   43500   0.46031709  -0.90399175  0.050688057   -0.3933702    1.8085815 
   43550    0.4516132  -0.89900208  0.058610148  -0.38915507    1.7829722 
   43600   0.43955033  -0.88339429  0.057727431  -0.38648282    1.8541025 
   43650   0.46663578  -0.91559417  0.054843792  -0.39450347    1.7204449 
   43700         0.45  -0.93302572  0.065321138  -0.41807959    1.6143141 
   43750   0.44174758  -0.91628207  0.055511852  -0.41939076    1.6929019 
   43800    0.4442221  -0.92288032  0.061884248  -0.41714415    1.6035247 
   43850   0.44705952  -0.92259519  0.059000989  -0.41690723    1.6096073 
   43900     0.440208  -0.91406139  0.060480863  -0.41373937    1.6361334 
   43950   0.43779316  -0.92003068  0.062925081  -0.41967727    1.6078367 
   44000   0.44929402  -0.92429022   0.05091281  -0.42445781    1.4955322 
   44050   0.43555753    -0.921803   0.06014628  -0.42646215    1.6285937 
   44100   0.44153731  -0.92817052  0.067132376  -0.41986878    1.5577951 
   44150   0.44092827  -0.92344332  0.061413333  -0.42146916    1.6216588 
   44200   0.43589598  -0.91752687  0.057259231  -0.42473491    1.6655856 
   44250   0.42412442  -0.91172645  0.063261189  -0.42469428    1.7200615 
   44300   0.43525945  -0.91675858   0.05733512  -0.42452673    1.6815012 
   44350     0.432782  -0.91521489  0.063554809  -0.41923873    1.6512423 
   44400   0.43943166  -0.91339286  0.059311161  -0.41501624    1.6115643 
   44450   0.43293529  -0.90875447  0.062638854  -0.41354111    1.6272955 
   44500   0.43406585  -0.90733024  0.059177151  -0.41444896    1.6890679 
   44550   0.43692454  -0.90889602  0.062135304  -0.41020028     1.728362 
   44600   0.43656707   -0.9161174  0.069137714  -0.41077642    1.6006278 
   44650   0.43733634  -0.91422428  0.061888534  -0.41536385    1.6507104 
   44700   0.46959782  -0.94722273  0.059101005  -0.41891524    1.5251314 
   44750   0.44860773  -0.92231221  0.061702885  -0.41237543    1.6078593 
   44800   0.43996199    -0.910219   0.05341964    -0.417204    1.7523515 
   44850   0.44709205   -0.9209293  0.054918625   -0.4192912    1.6406221 
   44900   0.43791937  -0.91462085  0.061760406    -0.415306    1.6676548 
   44950   0.46015972  -0.94250378  0.061655342  -0.42107218    1.4899093 
   45000   0.44923608  -0.92795816  0.061321953  -0.41777449    1.6504464 
   45050    0.4583618  -0.92831624  0.055318816  -0.41501759    1.5874763 
   45100   0.45545866  -0.92509081  0.054789295   -0.4152224    1.6350079 
   45150   0.46037292  -0.93778645  0.062943692  -0.41485348    1.5387953 
   45200   0.43792637    -0.921902  0.064711278  -0.41962929    1.6731218 
   45250   0.45020558  -0.91824077  0.051116102  -0.41729426    1.6075664 
   45300   0.45375901  -0.92313717  0.051586488   -0.4181698    1.6503404 
   45350   0.45149429  -0.92617859  0.053782014  -0.42127853    1.6052763 
   45400   0.44246068  -0.92274394  0.057983194  -0.42266878    1.6403169 
   45450   0.46023309  -0.92499053  0.050344842  -0.41479613    1.5716485 
   45500   0.44984801  -0.91971363  0.046387728  -0.42385277    1.6323025 
   45550   0.43674279  -0.91183751  0.055541692  -0.41991698     1.659461 
   45600    0.4418172  -0.91890911  0.058794797  -0.41866529    1.4780659 
   45650   0.44160086  -0.91526897  0.058278745  -0.41575737    1.6719619 
   45700    0.4396429  -0.91597747  0.060991102  -0.41570983     1.678672 
   45750   0.45944361  -0.92762917  0.055070948  -0.41349747    1.5715074 
   45800   0.44067099  -0.90499747  0.046066767  -0.41862694    1.7911707 
   45850   0.44089733  -0.92332175  0.062879931   -0.4199119    1.6595684 
   45900   0.45744046  -0.92682372  0.054751614  -0.41501285    1.5878607 
   45950   0.44220535  -0.91415455  0.053412053  -0.41890565    1.7833396 
   46000   0.44419205  -0.92128467  0.061853199  -0.41560958     1.682068 
   46050   0.43642007  -0.91256056  0.061230691  -0.41527347    1.6879751 
   46100         0.45  -0.89417668  0.058443877   -0.3861078    1.8462635 
   46150   0.46317359  -0.90899511  0.059445119  -0.38676238    1.7840911 
   46200   0.46061958  -0.91167509  0.061066039  -0.39037332    1.8309838 
   46250   0.46366653  -0.92168863  0.067547176  -0.39086131    1.7052129 
   46300   0.46446024  -0.92234543  0.071342314  -0.38692993    1.6215936 
   46350   0.46920009   -0.9187969  0.063091785  -0.38689602    1.6122483 
   46400   0.45200475  -0.89475395  0.058772593  -0.38435328    1.7976247 
   46450    0.4612909   -0.8999496  0.061212033  -0.37783107    1.8271877 
   46500         0.45  -0.91365959   0.06284186  -0.40119273    1.7268627 
   46550    0.4565747  -0.91382635  0.055533299  -0.40209883    1.7006322 
   46600   0.44829046  -0.90891173  0.052253589  -0.40874126    1.7552122 
   46650   0.44973164  -0.90759581  0.053289049  -0.40494989    1.7621765 
   46700   0.43984502  -0.91730041   0.06546092    -0.412361    1.7385111 
   46750    0.4596534    -0.918359  0.055380453  -0.40370819    1.6315648 
   46800   0.46113702  -0.91954579  0.058080033  -0.40071302    1.6323052 
   46850   0.45537302  -0.92071185  0.060438262  -0.40528004    1.5914192 
   46900   0.45260244  -0.91075358  0.056987285  -0.40154102    1.7121408 
   46950   0.44980734  -0.91790774   0.05761665  -0.41085859     1.646303 
   47000   0.45417721  -0.91532711  0.056293453  -0.40523493    1.6434835 
   47050   0.46245217  -0.92598481  0.056208191  -0.40770983    1.6173259 
   47100   0.44292093  -0.90497674   0.05546965  -0.40695526    1.8235457 
   47150   0.44889623  -0.91905725  0.064987245  -0.40554785    1.5875279 
   47200   0.44959612  -0.91569736  0.061589624  -0.40488628    1.6813959 
   47250   0.45139861  -0.91437637  0.056228099  -0.40712582    1.5407286 
   47300   0.43726318  -0.90792004   0.06026303  -0.41075822     1.688692 
   47350    0.4452328  -0.91826872  0.059792534  -0.41361442    1.6612474 
   47400   0.44612894  -0.91194326  0.058899026  -0.40728708    1.7174351 
   47450    0.4540828  -0.92118298  0.056013672  -0.41146491    1.5926548 
   47500         0.45  -0.90148064  0.065349364  -0.38650628     1.755643 
   47550   0.45400966  -0.90625326   0.06168712  -0.39093482    1.8271504 
   47600   0.46493045  -0.91085185  0.060383795  -0.38592505    1.7918821 
   47650   0.47004054  -0.91519179  0.062124958  -0.38341799    1.6171973 
   47700   0.45986901  -0.91211839  0.065243613  -0.38738899    1.6748575 
   47750    0.4655998  -0.91479489   0.06210044  -0.38748265    1.6381128 
   47800   0.46577387  -0.90835962   0.06025378  -0.38272011      1.78812 
   47850   0.46336132  -0.91251864  0.058773589  -0.39076986    1.7480965 
   47900   0.45309477   -0.9060626  0.064346421  -0.38899899    1.7400077 
   47950   0.46302699  -0.90476771  0.058342035  -0.38378454    1.7440716 
   48000   0.45107486  -0.90935815  0.070718755  -0.38794043    1.7797605 
   48050   0.47698526  -0.92369299  0.058293322   -0.3888119    1.6425965 
   48100   0.45812094  -0.90520128  0.057415321  -0.39004678    1.7601995 
   48150   0.45164542  -0.89998076  0.064430379  -0.38428133    1.7469491 
   48200   0.45796098  -0.89906942  0.057208217  -0.38428186    1.7393177 
   48250   0.46000879  -0.90075984  0.058927796   -0.3822066    1.7278703 
   48300         0.45  -0.91397051   0.05734383  -0.40700168    1.6471471 
   48350   0.43886751  -0.90828334  0.066526741  -0.40325481    1.6921279 
   48400   0.43895094  -0.91114883  0.063945054  -0.40861863    1.6848161 
   48450   0.44788375  -0.91627883  0.062762052  -0.40600626    1.5935937 
   48500   0.44694824   -0.9180069  0.061431545  -0.40999957    1.6396561 
   48550   0.45836458  -0.93204581   0.06551383  -0.40854937    1.5560766 
   48600    0.4523459  -0.92569865  0.064131258  -0.40959845    1.5976116 
   48650   0.45158441  -0.92473536  0.066116223  -0.40741104    1.5823166 
   48700   0.44567842  -0.91042586  0.062984206  -0.40213463     1.586637 
   48750   0.44723156  -0.91173831  0.059008863  -0.40587058    1.7118777 
   48800   0.45461335  -0.92479038  0.059335628  -0.41122025    1.5506828 
   48850    0.4484455  -0.91828666  0.059083025  -0.41113184    1.6187518 
   48900         0.45  -0.89421554  0.069228122  -0.37536242    1.7987672 
   48950    0.4651996  -0.90700517  0.059531068  -0.38266217    1.7976057 
   49000   0.46809696  -0.90323765  0.057337247  -0.37819352    1.7817079 
   49050    0.4736847  -0.91608946  0.063198599   -0.3796009    1.6856518 
   49100   0.45632399   -0.9015286  0.066111164  -0.37947371     1.794589 
   49150   0.46989471  -0.90590322  0.057386247  -0.37901384    1.7706976 
   49200   0.45465214   -0.9004901  0.066550438  -0.37966639    1.7872193 
   49250   0.46798542  -0.91442267  0.060082285  -0.38674496    1.7351303 
   49300         0.45  -0.90772324   0.05558329  -0.40251495     1.809808 
   49350   0.45390008  -0.91035611  0.060147713  -0.39668656    1.7256551 
   49400   0.44860692  -0.91001748  0.059139007  -0.40264539    1.7800038 
   49450   0.45908495  -0.92208536  0.061767911  -0.40161507    1.6643602 
   49500   0.44604406  -0.90481336  0.060342738  -0.39879827    1.6944944 
   49550   0.44269815  -0.89695872  0.054214574  -0.40041491    1.8948893 
   49600   0.46077169  -0.91553572   0.05463246  -0.40051554    1.7926905 
   49650   0.46599423  -0.92184239  0.055045931  -0.40119055     1.708069 
   49700   0.46718849  -0.92275523  0.061185684  -0.39477039    1.6446809 
   49750   0.47017574  -0.91985145  0.055237237  -0.39483029     1.644368 
   49800   0.45851992    -0.924306  0.067256058  -0.39891212    1.5954451 
   49850    0.4540362  -0.92675593  0.069039274  -0.40405882    1.6631673 
   49900   0.46735803  -0.92576522  0.059582799  -0.39921385    1.6458111 
[...]
   87550   0.43536517  -0.92876585  0.063719358  -0.43004413    1.6296388 
   87600   0.44838018  -0.92877805  0.054808437  -0.42596309    1.6218012 
   87650   0.45475928  -0.93686981  0.056729894   -0.4257596     1.552948 
   87700    0.4417591  -0.92197536   0.05637834  -0.42420605    1.6163441 
   87750   0.44698911  -0.92731296  0.054644392  -0.42605195    1.6321664 
   87800    0.4401858  -0.91734874  0.053481516  -0.42404824     1.664009 
   87850   0.44072577  -0.92346557  0.056589736  -0.42651733    1.6630805 
   87900   0.43438681     -0.91493  0.058174673   -0.4227305    1.6757031 
   87950   0.44413331  -0.92199539  0.054564675  -0.42366752    1.5934638 
   88000   0.43567921  -0.92080092  0.059448058  -0.42603672    1.6269739 
   88050   0.44290255  -0.93489245  0.067276587   -0.4250824    1.5167292 
   88100         0.45  -0.91902736  0.063909445  -0.40549292    1.6825518 
   88150   0.46042124   -0.9275997  0.060329251   -0.4072329    1.6353409 
   88200   0.44763362  -0.92422861  0.066952023  -0.41001599    1.6485455 
   88250   0.43766158  -0.91084637  0.067038762  -0.40651075    1.6658493 
   88300   0.45895615  -0.91706347  0.056002666  -0.40248712    1.6841157 
   88350   0.45548098  -0.92043349  0.064516017  -0.40081606    1.6623875 
   88400   0.44891061  -0.91257551   0.06355702  -0.40048197     1.662388 
   88450   0.46249059  -0.93191183  0.066938567  -0.40286808    1.6005134 
   88500   0.45313519  -0.91989588  0.065820853  -0.40131746    1.6186264 
   88550   0.44939706  -0.91506566  0.064927583  -0.40111551    1.6713048 
   88600   0.45987816  -0.92083544  0.061954634  -0.39938588    1.5897489 
   88650   0.46121971  -0.92396473  0.062379672   -0.4007497    1.5699691 
   88700    0.4640076  -0.93753095  0.070349487  -0.40356053    1.4192063 
   88750    0.4570057  -0.93472805  0.069252658  -0.40885054     1.531043 
   88800   0.45383026   -0.9226396  0.065505418  -0.40368212    1.6594209 
   88850   0.46105437  -0.92798519  0.064271615  -0.40304342    1.5791874 
   88900   0.46997123  -0.93922698  0.061025287  -0.40862211    1.5662192 
   88950   0.46236407    -0.928223  0.065912494  -0.40033175    1.5884828 
   89000    0.4619582  -0.92219622   0.05958762  -0.40103537    1.6555768 
   89050   0.47360757  -0.92620773  0.053994228  -0.39900061    1.5830061 
   89100   0.45244212  -0.91953652   0.06579574  -0.40167569    1.6369077 
   89150   0.44636612  -0.90814555  0.054983734  -0.40716767    1.7366017 
   89200   0.46938487  -0.93495367  0.059413421  -0.40654654    1.5489723 
   89250   0.45704372  -0.92189327  0.058656293  -0.40657413    1.5875212 
   89300         0.45  -0.93687672  0.061716976  -0.42553474    1.5187773 
   89350   0.44152196  -0.93108069  0.063846238  -0.42608042    1.5129511 
   89400   0.43238896  -0.91782438  0.059539748    -0.426256    1.6531293 
   89450   0.44850559  -0.93746232  0.063417167  -0.42591332    1.4791032 
   89500   0.43949901  -0.92555506  0.064057047  -0.42236525    1.4898111 
   89550   0.43360535  -0.91896976  0.060522085  -0.42520366    1.5841636 
   89600   0.43186905  -0.91591461  0.055990667  -0.42841478    1.5622385 
   89650   0.43885705  -0.91680037  0.052486897  -0.42582214    1.6183873 
   89700         0.45  -0.90871081  0.056946596  -0.40213921    1.7234976 
   89750   0.44760686  -0.90861284  0.063128767  -0.39825022    1.7208017 
   89800         0.45  -0.93600854  0.052919155  -0.43346439    1.5227283 
   89850   0.43982284  -0.91715172   0.05060143  -0.42709397    1.6644628 
   89900   0.43826012  -0.91707322  0.049893084  -0.42928523    1.6592272 
   89950   0.45907671   -0.9386438  0.047403707  -0.43254594    1.5019116 
   90000   0.43997206  -0.93490282  0.061716199  -0.43358121    1.4555384 
   90050   0.42524698  -0.91968968  0.059279094  -0.43551798    1.6427274 
   90100   0.45073776  -0.94392279  0.060086721  -0.43347393    1.4370517 
   90150   0.43544618  -0.93127078  0.062427523  -0.43375995    1.5547672 
   90200   0.44787059  -0.93136539  0.054822106  -0.42904592    1.5337715 
   90250    0.4398076   -0.9272127  0.057693612  -0.43007799    1.6296393 
   90300   0.43051804  -0.91733228  0.055692505   -0.4314805    1.6139988 
   90350   0.44390388  -0.93820318  0.058144364  -0.43652486    1.5136768 
   90400    0.4366772  -0.92366307  0.052579905  -0.43476986      1.61383 
   90450   0.44930727  -0.93337363  0.053077746  -0.43136304    1.5313044 
   90500   0.44238193  -0.93306475  0.055446982  -0.43560448    1.5459579 
   90550   0.44256465  -0.92914327  0.053474249  -0.43347318    1.5326002 
   90600         0.45  -0.90905721  0.062704123  -0.39672808     1.797205 
   90650   0.45224464  -0.90765571  0.055453951  -0.40033398    1.7744934 
   90700   0.46372305  -0.92362234   0.06104183  -0.39924389    1.6652845 
   90750    0.4701732  -0.91862268  0.054040491   -0.3948008    1.6773626 
   90800   0.46297606  -0.91497863  0.059603111  -0.39278528    1.6472843 
   90850   0.46575796  -0.91671489  0.052894912  -0.39845015    1.6496733 
   90900         0.45  -0.92702932  0.059482058  -0.41792226    1.5424598 
   90950   0.44947319  -0.92002485  0.055849712  -0.41507651    1.5872196 
   91000   0.45981484  -0.93215841  0.060516304  -0.41221044    1.5315155 
   91050   0.45373539  -0.92048464  0.055297739  -0.41182962    1.6424626 
   91100   0.44315138  -0.91931634  0.062109433  -0.41442482    1.5889664 
   91150   0.44949548  -0.92687762  0.065712051  -0.41204467    1.5148306 
   91200   0.46149366  -0.92294783  0.051722003  -0.41011674    1.5845184 
   91250   0.44595447  -0.92421281  0.067203252  -0.41142672    1.4388071 
   91300   0.45785992  -0.93132314  0.062790479  -0.41105429    1.5065088 
   91350   0.46305985   -0.9431152  0.062853505  -0.41758773    1.5217955 
   91400   0.44535454  -0.92094588  0.062490042  -0.41347243    1.6055149 
   91450    0.4492259  -0.92837097  0.068335796  -0.41118363    1.5041051 
   91500   0.44132679  -0.91383956  0.060529663  -0.41235089    1.6401461 
   91550   0.46029534  -0.93679584  0.062782355  -0.41410172    1.4156391 
   91600   0.45397587  -0.92279068  0.059147539  -0.41004558    1.5363084 
   91650   0.44790993  -0.91709752  0.054390903  -0.41516994    1.6253787 
   91700   0.46065579  -0.92296933  0.050212612   -0.4124848    1.5400794 
   91750   0.44724854  -0.92208624  0.062930622  -0.41227978    1.6192916 
   91800   0.45245103  -0.92088435  0.057735506  -0.41107485    1.5442168 
   91850   0.44008045  -0.91626686  0.064711616  -0.41184153    1.6261098 
   91900   0.45886395  -0.94288667  0.068411504   -0.4159936    1.4527987 
   91950   0.44529896  -0.91697274  0.059654211  -0.41239064    1.7023273 
   92000   0.45362698  -0.92235998  0.052150395  -0.41696063    1.6536021 
   92050   0.44271011  -0.91312536  0.054929913  -0.41585426    1.6785031 
   92100   0.46203788   -0.9347967  0.057247162  -0.41589669    1.5337048 
   92150   0.43603832  -0.91599384    0.0633323  -0.41698658    1.6836271 
   92200   0.45413234    -0.934087  0.065961335  -0.41437177    1.5498134 
   92250   0.45850079  -0.92600525   0.05404048  -0.41384606    1.5587294 
   92300   0.46994207  -0.93835047   0.05523102    -0.413569    1.4698696 
   92350   0.45912704  -0.93398683  0.063417954  -0.41182444    1.4622596 
   92400   0.45791344  -0.93525118   0.05989713   -0.4178222    1.5745766 
   92450   0.45390694  -0.92940968  0.061752399  -0.41412859    1.5557411 
   92500   0.44359163  -0.92201286   0.06424349   -0.4145474    1.6085562 
   92550     0.461216  -0.92923591   0.05616389  -0.41224037     1.597124 
   92600   0.44921187  -0.92372701  0.058823724  -0.41606576    1.6797695 
   92650   0.45103269  -0.92870201  0.061331496  -0.41671368    1.5371852 
   92700   0.44564142  -0.92041418  0.064886562  -0.41025756    1.6240655 
   92750   0.45616986  -0.93080253  0.062241233  -0.41277158    1.5584772 
   92800    0.4552368  -0.92992878  0.061639377  -0.41343197    1.5334241 
   92850   0.46995609  -0.93592276  0.052197411  -0.41416088    1.4629994 
   92900   0.46051128  -0.93692229  0.067661839  -0.40913293    1.3917828 
   92950   0.46366361  -0.94337606  0.063516025  -0.41658282    1.3884966 
   93000   0.44518827  -0.92657582  0.068337749  -0.41342079    1.6033659 
   93050   0.43736489  -0.90386486  0.054886537  -0.41197791    1.6766191 
   93100   0.46252346  -0.92821873  0.055665328  -0.41041538    1.5796934 
   93150   0.45928553  -0.92914072  0.056557407  -0.41368051    1.5361626 
   93200   0.45203962  -0.93220324  0.064820934  -0.41571939    1.5571212 
   93250   0.44874152  -0.92677871  0.062763288  -0.41564785    1.5864109 
   93300   0.45473935  -0.93020747  0.066098814  -0.40974826    1.4408841 
   93350   0.46127703  -0.92717225  0.056119724  -0.41015989    1.5727365 
   93400   0.46266368  -0.93115492  0.054179568  -0.41469722    1.5741058 
   93450   0.46129745  -0.93341073  0.058470852  -0.41402684    1.5643364 
   93500   0.44417738  -0.92358671  0.064898473    -0.414881     1.612721 
   93550    0.4498972  -0.91653395  0.051615421  -0.41539625    1.6418706 
   93600   0.45136841  -0.91372976    0.0533921  -0.40934539    1.6272135 
   93650   0.44684838  -0.91267699  0.054448018  -0.41175297    1.6568459 
   93700    0.4446911  -0.91391251  0.052879129  -0.41671286     1.684411 
   93750   0.44728208  -0.92077768   0.05816064   -0.4157077    1.5909331 
   93800   0.45889861  -0.93110015  0.062152002  -0.41043195    1.5538854 
   93850   0.45858742   -0.9331717  0.061324206  -0.41364223    1.5710728 
   93900   0.45655597  -0.92523436  0.055448108  -0.41361075    1.5880597 
   93950   0.45843661    -0.929844  0.057752341  -0.41403708    1.5316836 
   94000   0.45193381  -0.92741768  0.057130458  -0.41873003    1.6078883 
   94050   0.46164169  -0.92909856  0.051715896  -0.41612568    1.5517859 
   94100         0.45  -0.93837147  0.056425181  -0.43232129    1.4476574 
   94150   0.43136766  -0.91886208  0.053156447  -0.43469745    1.6337005 
   94200   0.43867022  -0.92731244  0.053848999  -0.43515878    1.5776371 
   94250   0.43552782  -0.92592115  0.053126925  -0.43762934     1.539085 
   94300   0.43540992  -0.93102618  0.061407719  -0.43457138    1.4658346 
   94350    0.4381298  -0.93070133  0.060138793  -0.43279785    1.4716734 
   94400   0.43505214  -0.92918256  0.059308526  -0.43518444    1.4791976 
   94450   0.42718801  -0.92883779   0.06375597   -0.4382498    1.4267889 
   94500   0.43667906  -0.93610946  0.062219029  -0.43757527    1.4426383 
   94550   0.43359762  -0.92468544  0.052421529  -0.43902762    1.5468449 
   94600    0.4311251  -0.92172274  0.051154429  -0.43980248    1.5425939 
   94650   0.42083568  -0.92169717  0.060818252  -0.44039393    1.6634776 
   94700   0.43126545  -0.93000129  0.058065683  -0.44102955    1.4976826 
   94750   0.42590772  -0.92997636  0.065707447  -0.43871611    1.5442811 
   94800   0.43095233  -0.92810113  0.062179347  -0.43532858    1.5014585 
   94850    0.4418299  -0.93991766  0.061525582  -0.43693037    1.4380045 
   94900         0.45  -0.91680446    0.0566025  -0.41057696    1.6738267 
   94950   0.44959359  -0.92845737  0.062527607  -0.41671083    1.5790589 
   95000    0.4584057  -0.93791607  0.060308655  -0.41958372    1.5005536 
   95050   0.44736152  -0.92390181  0.058497152  -0.41841594    1.5792933 
   95100    0.4530053  -0.92623339  0.057542594    -0.416063    1.5959288 
   95150   0.45845494  -0.93001136   0.05686206  -0.41507641     1.541309 
   95200   0.44273635  -0.91981127   0.06277969  -0.41466418     1.598092 
   95250   0.42770541  -0.91162505  0.064729706  -0.41954635    1.6339154 
   95300   0.43916255  -0.92256159  0.065090824  -0.41867418    1.6134182 
   95350   0.46622141   -0.9410818  0.060270419  -0.41497849    1.4386232 
   95400   0.44633082  -0.91920423  0.057896686  -0.41534867    1.5422515 
   95450   0.44535511  -0.91565978  0.059841273  -0.41083453    1.6438146 
   95500   0.45294415  -0.92154384  0.054880929  -0.41409621    1.5727197 
   95550   0.44750753  -0.91850546  0.056293845  -0.41507701     1.596553 
   95600   0.45696686  -0.92383589  0.053423345  -0.41382649    1.5982507 
   95650   0.44753471  -0.91649665  0.055522674  -0.41381221    1.6719176 
   95700    0.4536836  -0.92491065   0.06043962   -0.4111655    1.5738039 
   95750    0.4597209  -0.92922934  0.060227358  -0.40966418    1.5942092 
   95800         0.45  -0.93420329  0.055571129  -0.42900716    1.5093423 
   95850   0.44226873  -0.92266573   0.05482796   -0.4259376    1.4990092 
   95900   0.43867038  -0.92081245   0.05631026  -0.42619737    1.4910291 
   95950   0.43505918  -0.92429609  0.061992562   -0.4276069    1.5455635 
   96000   0.44587074  -0.93910994  0.058040698  -0.43557005    1.4150348 
   96050   0.44524145  -0.94008645  0.054664389  -0.44055165    1.4451128 
   96100   0.43826896  -0.92827491  0.058293974   -0.4320772    1.5346621 
   96150   0.41948003  -0.91598214  0.060781647  -0.43607002    1.6047874 
   96200         0.45  -0.93162053  0.070994979  -0.41100055    1.4823132 
   96250   0.44162019  -0.90957961  0.055485541   -0.4128419    1.7335698 
   96300   0.46042064  -0.93334042  0.059609134  -0.41369433    1.5675774 
   96350   0.44685214  -0.92007882  0.060389247  -0.41320981    1.6313858 
   96400   0.45796134  -0.92558716  0.055222154   -0.4127853    1.6033144 
   96450   0.43376235  -0.91374305  0.066948271   -0.4133939    1.5925554 
   96500   0.44781667  -0.92514816  0.064205631  -0.41349904    1.6130573 
   96550   0.46925128  -0.94660949  0.064727669  -0.41302158     1.368587 
   96600   0.46107043  -0.92926727  0.055572998  -0.41300807     1.492986 
   96650   0.45465922  -0.92731633  0.062110369  -0.41092563    1.5416485 
   96700   0.44756288  -0.91835372  0.058849175  -0.41231464    1.5591493 
   96750   0.44802037  -0.92093797   0.06005817  -0.41323278    1.6093866 
   96800   0.44604987  -0.91402883  0.056983374  -0.41136729    1.5754288 
   96850   0.44495966  -0.91173009  0.054497201  -0.41264402    1.6836317 
   96900    0.4490403  -0.92213064  0.061296502  -0.41216804    1.5420336 
   96950   0.46013105  -0.92141824  0.050079044  -0.41159159     1.562748 
   97000   0.44688552  -0.92175745  0.059293202  -0.41595114    1.6139311 
   97050   0.45077823  -0.92261322  0.055937396  -0.41627324    1.6160589 
   97100   0.45855905  -0.92792955  0.054903928  -0.41484871    1.5744474 
   97150   0.45488226  -0.92778843  0.054514883  -0.41877036    1.6390068 
   97200   0.45691605    -0.929688  0.058048488  -0.41510422    1.6000573 
   97250   0.43914929  -0.91491272  0.062374053  -0.41375534    1.6213905 
   97300   0.45819096  -0.92725117  0.054711866  -0.41473017    1.5583281 
   97350   0.46552873  -0.93445184  0.051223741  -0.41808731    1.5953957 
   97400   0.44353999  -0.91213339  0.056699775  -0.41226323    1.6727446 
   97450   0.44287093   -0.9163307  0.061378606  -0.41245022     1.686652 
   97500   0.44968333  -0.92224208  0.058694151  -0.41423933    1.6286472 
   97550   0.44821572   -0.9123697  0.049707449  -0.41482005    1.6427889 
   97600   0.43746005  -0.90694141  0.054167068  -0.41567884     1.800715 
   97650   0.45543517  -0.91992654  0.054298459  -0.41057245    1.6644137 
   97700   0.45351525  -0.91750811  0.053183854  -0.41118694    1.6904752 
   97750   0.45811242  -0.92653031  0.057731233  -0.41106842    1.5870639 
   97800   0.44708485  -0.91594925  0.057400785  -0.41183618    1.6620433 
   97850    0.4554994  -0.91947737  0.054189257   -0.4101683    1.6547039 
   97900   0.45357377  -0.92471926  0.060072194  -0.41145127    1.6200353 
   97950   0.45752195  -0.94591423  0.070389121  -0.41838443    1.4886026 
   98000   0.46757441  -0.94390562  0.060639124  -0.41608173    1.4735539 
   98050    0.4440295  -0.92417851  0.063349217  -0.41716982    1.6173139 
   98100   0.44487037  -0.92049511  0.064330213  -0.41166525    1.5791012 
   98150   0.46022712  -0.92978702  0.060659165  -0.40928427    1.5125024 
   98200   0.46040204  -0.93210725  0.060182582   -0.4119063    1.4446138 
   98250   0.45644532   -0.9366733  0.068376459  -0.41223189    1.5418593 
   98300   0.43497809  -0.91615574  0.069393902  -0.41214622    1.6264084 
   98350   0.45223747  -0.92930384  0.064761093  -0.41268214    1.6078113 
   98400    0.4645939  -0.93249693  0.059117816  -0.40917237    1.5620771 
   98450   0.45126392  -0.92858887  0.065261431  -0.41243957    1.5364018 
   98500     0.430201  -0.90416268  0.065144811  -0.40917537    1.7272246 
   98550   0.46116116  -0.92977453  0.059644854  -0.40935283    1.5419262 
   98600   0.44912713  -0.92415152  0.061519209  -0.41387945    1.5951251 
   98650   0.45946625  -0.93889366   0.06850032  -0.41130998    1.5643862 
   98700    0.4601757  -0.92060884  0.053347654  -0.40746896    1.5620305 
   98750   0.45438676  -0.92615588  0.059628551  -0.41251923    1.5577526 
   98800   0.46786043   -0.9360717  0.059899572  -0.40870158    1.5167062 
   98850   0.45972878   -0.9158974  0.049019179  -0.40753255    1.6604514 
   98900   0.46379244  -0.92696615  0.051636013  -0.41192419    1.6209076 
   98950    0.4577966  -0.92162875  0.053692715  -0.41052093    1.6438711 
   99000   0.45619123  -0.93181304  0.060575518  -0.41542645    1.5368536 
   99050   0.45638283  -0.91839142  0.052774822  -0.40961408    1.6909707 
   99100   0.45835383  -0.92385161  0.054758067  -0.41112167    1.6677778 
   99150   0.46193675  -0.93608563  0.058523506  -0.41601033     1.548264 
   99200   0.44740774  -0.92309331  0.058810472  -0.41724793    1.5401723 
   99250    0.4646574  -0.92575972  0.053214458  -0.40827508    1.5815004 
   99300   0.46014459  -0.93694484   0.06079141   -0.4163923    1.5585779 
   99350   0.44771161  -0.92405089  0.061705064  -0.41500731    1.6037922 
   99400   0.45059561  -0.92196371  0.059153894   -0.4125897    1.6926015 
   99450    0.4548204  -0.92247813   0.05718353  -0.41085322     1.599131 
   99500    0.4533006  -0.93128965  0.067466899   -0.4108999    1.4979088 
   99550   0.45394443  -0.91924195  0.054986991  -0.41068882    1.6453972 
   99600   0.46357819  -0.92549274  0.052151392  -0.41014948    1.5984403 
   99650   0.44310289  -0.91109226  0.057297599  -0.41106102    1.6842973 
   99700   0.45532745  -0.92148162  0.059220508   -0.4073131    1.6269149 
   99750   0.46521298   -0.9332822  0.059185964  -0.40927094    1.5498244 
   99800   0.46110102  -0.93020433  0.060139902  -0.40934766    1.4827449 
   99850   0.44821475  -0.91582069  0.059541438  -0.40843802    1.6209332 
   99900   0.45106186  -0.91147046  0.053368274  -0.40741621    1.6993789 
   99950   0.44745243  -0.91079947   0.05169861  -0.41202131    1.7384651 
  100000   0.45651652  -0.92535166  0.054177218  -0.41503835    1.6530381 
Loop time of 6.48656 on 4 procs for 100000 steps with 1200 atoms

Performance: 6659923.784 tau/day, 15416.490 timesteps/s
99.6% CPU use with 4 MPI tasks x no OpenMP threads

MPI task timing breakdown:
Section |  min time  |  avg time  |  max time  |%varavg| %total
---------------------------------------------------------------
Pair    | 3.454      | 3.6003     | 3.6976     |   5.0 | 55.50
Bond    | 0.15953    | 0.17828    | 0.19607    |   3.7 |  2.75
Neigh   | 0.99057    | 0.99148    | 0.9925     |   0.1 | 15.29
Comm    | 0.80618    | 0.91801    | 1.0874     |  10.9 | 14.15
Output  | 0.16933    | 0.17134    | 0.17719    |   0.8 |  2.64
Modify  | 0.40448    | 0.41424    | 0.42199    |   1.2 |  6.39
Other   |            | 0.2129     |            |       |  3.28

Nlocal:        300.000 ave         312 max         288 min
Histogram: 1 0 0 0 1 1 0 0 0 1
Nghost:        210.750 ave         213 max         208 min
Histogram: 1 0 1 0 0 0 0 0 0 2
Neighs:        2492.75 ave        2710 max        2378 min
Histogram: 2 0 1 0 0 0 0 0 0 1

Total # of neighbors = 9971
Ave neighs/atom = 8.3091667
Ave special neighs/atom = 0.50000000
Neighbor list builds = 8192
Dangerous builds = 0
Total wall time: 0:00:06
