ITEM: TIMESTEP
0
ITEM: NUMBER OF ATOMS
420
ITEM: BOX BOUNDS pp ss pp
0.0000000000000000e+00 2.2653923264628304e+01
-1.9618873042551413e-03 1.9620834929855668e+01
-2.8317404080785380e-01 2.8317404080785380e-01
ITEM: ATOMS id type xs ys zs
1 2 0 9.998e-05 0.5
2 2 0.025 0.05009 0.5
3 2 0.05 9.998e-05 0.5
4 2 0.075 0.05009 0.5
5 2 0.1 9.998e-05 0.5
6 2 0.125 0.05009 0.5
7 2 0.15 9.998e-05 0.5
8 2 0.175 0.05009 0.5
9 2 0.2 9.998e-05 0.5
10 2 0.225 0.05009 0.5
11 2 0.25 9.998e-05 0.5
12 2 0.275 0.05009 0.5
13 2 0.3 9.998e-05 0.5
14 2 0.325 0.05009 0.5
15 2 0.35 9.998e-05 0.5
16 2 0.375 0.05009 0.5
17 2 0.4 9.998e-05 0.5
18 2 0.425 0.05009 0.5
19 2 0.45 9.998e-05 0.5
20 2 0.475 0.05009 0.5
21 2 0 0.10008 0.5
23 2 0.05 0.10008 0.5
25 2 0.1 0.10008 0.5
27 2 0.15 0.10008 0.5
29 2 0.2 0.10008 0.5
31 2 0.25 0.10008 0.5
33 2 0.3 0.10008 0.5
35 2 0.35 0.10008 0.5
37 2 0.4 0.10008 0.5
39 2 0.45 0.10008 0.5
22 1 0.025 0.15007 0.5
41 1 0 0.20006 0.5
43 1 0.05 0.20006 0.5
24 1 0.075 0.15007 0.5
45 1 0.1 0.20006 0.5
26 1 0.125 0.15007 0.5
28 1 0.175 0.15007 0.5
47 1 0.15 0.20006 0.5
30 1 0.225 0.15007 0.5
49 1 0.2 0.20006 0.5
32 1 0.275 0.15007 0.5
51 1 0.25 0.20006 0.5
53 1 0.3 0.20006 0.5
34 1 0.325 0.15007 0.5
55 1 0.35 0.20006 0.5
36 1 0.375 0.15007 0.5
38 1 0.425 0.15007 0.5
57 1 0.4 0.20006 0.5
40 1 0.475 0.15007 0.5
59 1 0.45 0.20006 0.5
42 1 0.025 0.25005 0.5
44 1 0.075 0.25005 0.5
46 1 0.125 0.25005 0.5
48 1 0.175 0.25005 0.5
50 1 0.225 0.25005 0.5
52 1 0.275 0.25005 0.5
54 1 0.325 0.25005 0.5
56 1 0.375 0.25005 0.5
58 1 0.425 0.25005 0.5
60 1 0.475 0.25005 0.5
61 1 0 0.30004 0.5
62 1 0.025 0.35003 0.5
63 1 0.05 0.30004 0.5
64 1 0.075 0.35003 0.5
65 1 0.1 0.30004 0.5
66 1 0.125 0.35003 0.5
67 1 0.15 0.30004 0.5
68 1 0.175 0.35003 0.5
69 1 0.2 0.30004 0.5
70 1 0.225 0.35003 0.5
71 1 0.25 0.30004 0.5
72 1 0.275 0.35003 0.5
73 1 0.3 0.30004 0.5
74 1 0.325 0.35003 0.5
75 1 0.35 0.30004 0.5
76 1 0.375 0.35003 0.5
77 1 0.4 0.30004 0.5
78 1 0.425 0.35003 0.5
79 1 0.45 0.30004 0.5
80 1 0.475 0.35003 0.5
81 1 0 0.40002 0.5
83 1 0.05 0.40002 0.5
85 1 0.1 0.40002 0.5
87 1 0.15 0.40002 0.5
89 1 0.2 0.40002 0.5
91 1 0.25 0.40002 0.5
93 1 0.3 0.40002 0.5
95 1 0.35 0.40002 0.5
97 1 0.4 0.40002 0.5
99 1 0.45 0.40002 0.5
82 1 0.025 0.45001 0.5
84 1 0.075 0.45001 0.5
86 1 0.125 0.45001 0.5
88 1 0.175 0.45001 0.5
90 1 0.225 0.45001 0.5
92 1 0.275 0.45001 0.5
94 1 0.325 0.45001 0.5
96 1 0.375 0.45001 0.5
98 1 0.425 0.45001 0.5
100 1 0.475 0.45001 0.5
101 1 0 0.5 0.5
102 1 0.025 0.54999 0.5
103 1 0.05 0.5 0.5
104 1 0.075 0.54999 0.5
105 1 0.1 0.5 0.5
106 1 0.125 0.54999 0.5
107 1 0.15 0.5 0.5
108 1 0.175 0.54999 0.5
109 1 0.2 0.5 0.5
110 1 0.225 0.54999 0.5
111 1 0.25 0.5 0.5
112 1 0.275 0.54999 0.5
113 1 0.3 0.5 0.5
114 1 0.325 0.54999 0.5
115 1 0.35 0.5 0.5
116 1 0.375 0.54999 0.5
117 1 0.4 0.5 0.5
118 1 0.425 0.54999 0.5
119 1 0.45 0.5 0.5
120 1 0.475 0.54999 0.5
121 1 0 0.59998 0.5
123 1 0.05 0.59998 0.5
125 1 0.1 0.59998 0.5
127 1 0.15 0.59998 0.5
129 1 0.2 0.59998 0.5
131 1 0.25 0.59998 0.5
133 1 0.3 0.59998 0.5
135 1 0.35 0.59998 0.5
137 1 0.4 0.59998 0.5
139 1 0.45 0.59998 0.5
122 1 0.025 0.64997 0.5
141 1 0 0.69996 0.5
143 1 0.05 0.69996 0.5
124 1 0.075 0.64997 0.5
145 1 0.1 0.69996 0.5
126 1 0.125 0.64997 0.5
128 1 0.175 0.64997 0.5
147 1 0.15 0.69996 0.5
130 1 0.225 0.64997 0.5
149 1 0.2 0.69996 0.5
132 1 0.275 0.64997 0.5
151 1 0.25 0.69996 0.5
153 1 0.3 0.69996 0.5
134 1 0.325 0.64997 0.5
155 1 0.35 0.69996 0.5
136 1 0.375 0.64997 0.5
138 1 0.425 0.64997 0.5
157 1 0.4 0.69996 0.5
140 1 0.475 0.64997 0.5
159 1 0.45 0.69996 0.5
142 1 0.025 0.74995 0.5
144 1 0.075 0.74995 0.5
146 1 0.125 0.74995 0.5
148 1 0.175 0.74995 0.5
150 1 0.225 0.74995 0.5
152 1 0.275 0.74995 0.5
154 1 0.325 0.74995 0.5
156 1 0.375 0.74995 0.5
158 1 0.425 0.74995 0.5
160 1 0.475 0.74995 0.5
161 1 0 0.79994 0.5
162 1 0.025 0.84993 0.5
163 1 0.05 0.79994 0.5
164 1 0.075 0.84993 0.5
165 1 0.1 0.79994 0.5
166 1 0.125 0.84993 0.5
167 1 0.15 0.79994 0.5
168 1 0.175 0.84993 0.5
169 1 0.2 0.79994 0.5
170 1 0.225 0.84993 0.5
171 1 0.25 0.79994 0.5
172 1 0.275 0.84993 0.5
173 1 0.3 0.79994 0.5
174 1 0.325 0.84993 0.5
175 1 0.35 0.79994 0.5
176 1 0.375 0.84993 0.5
177 1 0.4 0.79994 0.5
178 1 0.425 0.84993 0.5
179 1 0.45 0.79994 0.5
180 1 0.475 0.84993 0.5
181 1 0 0.89992 0.5
183 1 0.05 0.89992 0.5
185 1 0.1 0.89992 0.5
187 1 0.15 0.89992 0.5
189 1 0.2 0.89992 0.5
191 1 0.25 0.89992 0.5
193 1 0.3 0.89992 0.5
195 1 0.35 0.89992 0.5
197 1 0.4 0.89992 0.5
199 1 0.45 0.89992 0.5
182 1 0.025 0.94991 0.5
201 1 0 0.9999 0.5
202 1 0.05 0.9999 0.5
184 1 0.075 0.94991 0.5
203 1 0.1 0.9999 0.5
186 1 0.125 0.94991 0.5
188 1 0.175 0.94991 0.5
204 1 0.15 0.9999 0.5
190 1 0.225 0.94991 0.5
205 1 0.2 0.9999 0.5
192 1 0.275 0.94991 0.5
206 1 0.25 0.9999 0.5
207 1 0.3 0.9999 0.5
194 1 0.325 0.94991 0.5
208 1 0.35 0.9999 0.5
196 1 0.375 0.94991 0.5
198 1 0.425 0.94991 0.5
209 1 0.4 0.9999 0.5
200 1 0.475 0.94991 0.5
210 1 0.45 0.9999 0.5
211 2 0.5 9.998e-05 0.5
212 2 0.525 0.05009 0.5
213 2 0.55 9.998e-05 0.5
214 2 0.575 0.05009 0.5
215 2 0.6 9.998e-05 0.5
216 2 0.625 0.05009 0.5
217 2 0.65 9.998e-05 0.5
218 2 0.675 0.05009 0.5
219 2 0.7 9.998e-05 0.5
220 2 0.725 0.05009 0.5
221 2 0.75 9.998e-05 0.5
222 2 0.775 0.05009 0.5
223 2 0.8 9.998e-05 0.5
224 2 0.825 0.05009 0.5
225 2 0.85 9.998e-05 0.5
226 2 0.875 0.05009 0.5
227 2 0.9 9.998e-05 0.5
228 2 0.925 0.05009 0.5
229 2 0.95 9.998e-05 0.5
230 2 0.975 0.05009 0.5
231 2 0.5 0.10008 0.5
233 2 0.55 0.10008 0.5
235 2 0.6 0.10008 0.5
237 2 0.65 0.10008 0.5
239 2 0.7 0.10008 0.5
241 2 0.75 0.10008 0.5
243 2 0.8 0.10008 0.5
245 2 0.85 0.10008 0.5
247 2 0.9 0.10008 0.5
249 2 0.95 0.10008 0.5
232 1 0.525 0.15007 0.5
251 1 0.5 0.20006 0.5
253 1 0.55 0.20006 0.5
234 1 0.575 0.15007 0.5
255 1 0.6 0.20006 0.5
236 1 0.625 0.15007 0.5
238 1 0.675 0.15007 0.5
257 1 0.65 0.20006 0.5
240 1 0.725 0.15007 0.5
259 1 0.7 0.20006 0.5
242 1 0.775 0.15007 0.5
261 1 0.75 0.20006 0.5
263 1 0.8 0.20006 0.5
244 1 0.825 0.15007 0.5
265 1 0.85 0.20006 0.5
246 1 0.875 0.15007 0.5
248 1 0.925 0.15007 0.5
267 1 0.9 0.20006 0.5
250 1 0.975 0.15007 0.5
269 1 0.95 0.20006 0.5
252 1 0.525 0.25005 0.5
254 1 0.575 0.25005 0.5
256 1 0.625 0.25005 0.5
258 1 0.675 0.25005 0.5
260 1 0.725 0.25005 0.5
262 1 0.775 0.25005 0.5
264 1 0.825 0.25005 0.5
266 1 0.875 0.25005 0.5
268 1 0.925 0.25005 0.5
270 1 0.975 0.25005 0.5
271 1 0.5 0.30004 0.5
272 1 0.525 0.35003 0.5
273 1 0.55 0.30004 0.5
274 1 0.575 0.35003 0.5
275 1 0.6 0.30004 0.5
276 1 0.625 0.35003 0.5
277 1 0.65 0.30004 0.5
278 1 0.675 0.35003 0.5
279 1 0.7 0.30004 0.5
280 1 0.725 0.35003 0.5
281 1 0.75 0.30004 0.5
282 1 0.775 0.35003 0.5
283 1 0.8 0.30004 0.5
284 1 0.825 0.35003 0.5
285 1 0.85 0.30004 0.5
286 1 0.875 0.35003 0.5
287 1 0.9 0.30004 0.5
288 1 0.925 0.35003 0.5
289 1 0.95 0.30004 0.5
290 1 0.975 0.35003 0.5
291 1 0.5 0.40002 0.5
293 1 0.55 0.40002 0.5
295 1 0.6 0.40002 0.5
297 1 0.65 0.40002 0.5
299 1 0.7 0.40002 0.5
301 1 0.75 0.40002 0.5
303 1 0.8 0.40002 0.5
305 1 0.85 0.40002 0.5
307 1 0.9 0.40002 0.5
309 1 0.95 0.40002 0.5
292 1 0.525 0.45001 0.5
294 1 0.575 0.45001 0.5
296 1 0.625 0.45001 0.5
298 1 0.675 0.45001 0.5
300 1 0.725 0.45001 0.5
302 1 0.775 0.45001 0.5
304 1 0.825 0.45001 0.5
306 1 0.875 0.45001 0.5
308 1 0.925 0.45001 0.5
310 1 0.975 0.45001 0.5
311 1 0.5 0.5 0.5
312 1 0.525 0.54999 0.5
313 1 0.55 0.5 0.5
314 1 0.575 0.54999 0.5
315 1 0.6 0.5 0.5
316 1 0.625 0.54999 0.5
317 1 0.65 0.5 0.5
318 1 0.675 0.54999 0.5
319 1 0.7 0.5 0.5
320 1 0.725 0.54999 0.5
321 1 0.75 0.5 0.5
322 1 0.775 0.54999 0.5
323 1 0.8 0.5 0.5
324 1 0.825 0.54999 0.5
325 1 0.85 0.5 0.5
326 1 0.875 0.54999 0.5
327 1 0.9 0.5 0.5
328 1 0.925 0.54999 0.5
329 1 0.95 0.5 0.5
330 1 0.975 0.54999 0.5
331 1 0.5 0.59998 0.5
333 1 0.55 0.59998 0.5
335 1 0.6 0.59998 0.5
337 1 0.65 0.59998 0.5
339 1 0.7 0.59998 0.5
341 1 0.75 0.59998 0.5
343 1 0.8 0.59998 0.5
345 1 0.85 0.59998 0.5
347 1 0.9 0.59998 0.5
349 1 0.95 0.59998 0.5
332 1 0.525 0.64997 0.5
351 1 0.5 0.69996 0.5
353 1 0.55 0.69996 0.5
334 1 0.575 0.64997 0.5
355 1 0.6 0.69996 0.5
336 1 0.625 0.64997 0.5
338 1 0.675 0.64997 0.5
357 1 0.65 0.69996 0.5
340 1 0.725 0.64997 0.5
359 1 0.7 0.69996 0.5
342 1 0.775 0.64997 0.5
361 1 0.75 0.69996 0.5
363 1 0.8 0.69996 0.5
344 1 0.825 0.64997 0.5
365 1 0.85 0.69996 0.5
346 1 0.875 0.64997 0.5
348 1 0.925 0.64997 0.5
367 1 0.9 0.69996 0.5
350 1 0.975 0.64997 0.5
369 1 0.95 0.69996 0.5
352 1 0.525 0.74995 0.5
354 1 0.575 0.74995 0.5
356 1 0.625 0.74995 0.5
358 1 0.675 0.74995 0.5
360 1 0.725 0.74995 0.5
362 1 0.775 0.74995 0.5
364 1 0.825 0.74995 0.5
366 1 0.875 0.74995 0.5
368 1 0.925 0.74995 0.5
370 1 0.975 0.74995 0.5
371 1 0.5 0.79994 0.5
372 1 0.525 0.84993 0.5
373 1 0.55 0.79994 0.5
374 1 0.575 0.84993 0.5
375 1 0.6 0.79994 0.5
376 1 0.625 0.84993 0.5
377 1 0.65 0.79994 0.5
378 1 0.675 0.84993 0.5
379 1 0.7 0.79994 0.5
380 1 0.725 0.84993 0.5
381 1 0.75 0.79994 0.5
382 1 0.775 0.84993 0.5
383 1 0.8 0.79994 0.5
384 1 0.825 0.84993 0.5
385 1 0.85 0.79994 0.5
386 1 0.875 0.84993 0.5
387 1 0.9 0.79994 0.5
388 1 0.925 0.84993 0.5
389 1 0.95 0.79994 0.5
390 1 0.975 0.84993 0.5
391 1 0.5 0.89992 0.5
393 1 0.55 0.89992 0.5
395 1 0.6 0.89992 0.5
397 1 0.65 0.89992 0.5
399 1 0.7 0.89992 0.5
401 1 0.75 0.89992 0.5
403 1 0.8 0.89992 0.5
405 1 0.85 0.89992 0.5
407 1 0.9 0.89992 0.5
409 1 0.95 0.89992 0.5
392 1 0.525 0.94991 0.5
411 1 0.5 0.9999 0.5
412 1 0.55 0.9999 0.5
394 1 0.575 0.94991 0.5
413 1 0.6 0.9999 0.5
396 1 0.625 0.94991 0.5
398 1 0.675 0.94991 0.5
414 1 0.65 0.9999 0.5
400 1 0.725 0.94991 0.5
415 1 0.7 0.9999 0.5
402 1 0.775 0.94991 0.5
416 1 0.75 0.9999 0.5
417 1 0.8 0.9999 0.5
404 1 0.825 0.94991 0.5
418 1 0.85 0.9999 0.5
406 1 0.875 0.94991 0.5
408 1 0.925 0.94991 0.5
419 1 0.9 0.9999 0.5
410 1 0.975 0.94991 0.5
420 1 0.95 0.9999 0.5
ITEM: TIMESTEP
250
ITEM: NUMBER OF ATOMS
420
ITEM: BOX BOUNDS pp ss pp
0.0000000000000000e+00 2.2653923264628304e+01
-1.9618873042551413e-03 2.0077067025047018e+01
-2.8317404080785380e-01 2.8317404080785380e-01
ITEM: ATOMS id type xs ys zs
1 2 0 9.77083e-05 0.5
2 2 0.025 0.0489518 0.5
3 2 0.05 9.77083e-05 0.5
4 2 0.075 0.0489518 0.5
5 2 0.1 9.77083e-05 0.5
6 2 0.125 0.0489518 0.5
7 2 0.15 9.77083e-05 0.5
8 2 0.175 0.0489518 0.5
9 2 0.2 9.77083e-05 0.5
10 2 0.225 0.0489518 0.5
11 2 0.25 9.77083e-05 0.5
12 2 0.275 0.0489518 0.5
13 2 0.3 9.77083e-05 0.5
14 2 0.325 0.0489518 0.5
15 2 0.35 9.77083e-05 0.5
16 2 0.375 0.0489518 0.5
17 2 0.4 9.77083e-05 0.5
18 2 0.425 0.0489518 0.5
19 2 0.45 9.77083e-05 0.5
20 2 0.475 0.0489518 0.5
21 2 0 0.097806 0.5
23 2 0.05 0.097806 0.5
25 2 0.1 0.097806 0.5
27 2 0.15 0.097806 0.5
29 2 0.2 0.097806 0.5
31 2 0.25 0.097806 0.5
33 2 0.3 0.097806 0.5
35 2 0.35 0.097806 0.5
37 2 0.4 0.097806 0.5
39 2 0.45 0.097806 0.5
22 1 0.0265105 0.14551 0.5
100 1 0.475129 0.435769 0.5
43 1 0.0532638 0.195274 0.5
24 1 0.0764773 0.148268 0.5
45 1 0.101677 0.19219 0.5
26 1 0.124231 0.145443 0.5
28 1 0.180626 0.142863 0.5
47 1 0.149513 0.196554 0.5
30 1 0.229931 0.148815 0.5
49 1 0.199168 0.195835 0.5
32 1 0.276922 0.149125 0.5
51 1 0.248892 0.198877 0.5
53 1 0.302644 0.196857 0.5
34 1 0.326982 0.144271 0.5
55 1 0.352429 0.19253 0.5
36 1 0.375686 0.141925 0.5
38 1 0.426592 0.141999 0.5
57 1 0.404482 0.18986 0.5
40 1 0.477718 0.147553 0.5
59 1 0.44946 0.190156 0.5
42 1 0.0271312 0.242191 0.5
44 1 0.0745659 0.24149 0.5
46 1 0.123404 0.24332 0.5
48 1 0.171579 0.242668 0.5
50 1 0.224037 0.24656 0.5
52 1 0.278953 0.241426 0.5
54 1 0.330099 0.243005 0.5
56 1 0.376625 0.23958 0.5
58 1 0.427793 0.239758 0.5
60 1 0.476393 0.242714 0.5
98 1 0.424859 0.438546 0.5
62 1 0.0257687 0.338331 0.5
63 1 0.0493618 0.289725 0.5
64 1 0.0769272 0.341791 0.5
65 1 0.101613 0.293011 0.5
66 1 0.127917 0.345991 0.5
67 1 0.150248 0.294673 0.5
68 1 0.174639 0.34408 0.5
69 1 0.200809 0.293968 0.5
70 1 0.227658 0.338948 0.5
71 1 0.254752 0.291324 0.5
72 1 0.276919 0.342793 0.5
73 1 0.302498 0.291528 0.5
74 1 0.327557 0.342868 0.5
75 1 0.353662 0.29065 0.5
76 1 0.375311 0.33686 0.5
77 1 0.400714 0.290277 0.5
78 1 0.422831 0.341711 0.5
79 1 0.449524 0.290076 0.5
80 1 0.473846 0.342401 0.5
96 1 0.370729 0.443085 0.5
83 1 0.0554961 0.387235 0.5
85 1 0.107229 0.392773 0.5
87 1 0.154667 0.397468 0.5
89 1 0.201738 0.388962 0.5
91 1 0.253483 0.392684 0.5
93 1 0.299404 0.393148 0.5
95 1 0.349254 0.392711 0.5
97 1 0.395291 0.389327 0.5
99 1 0.447289 0.39262 0.5
82 1 0.0276066 0.436215 0.5
84 1 0.0809101 0.438137 0.5
86 1 0.128125 0.447847 0.5
88 1 0.177463 0.445738 0.5
90 1 0.224286 0.435682 0.5
92 1 0.275613 0.44495 0.5
94 1 0.323318 0.441037 0.5
291 1 0.498866 0.390226 0.5
103 1 0.0513639 0.48602 0.5
105 1 0.0989762 0.491879 0.5
107 1 0.151259 0.494569 0.5
109 1 0.200497 0.495965 0.5
113 1 0.29747 0.489192 0.5
115 1 0.34895 0.493083 0.5
117 1 0.399391 0.489061 0.5
119 1 0.448337 0.488772 0.5
81 1 0.00385219 0.385569 0.5
101 1 0.00159641 0.485376 0.5
111 1 0.249625 0.491103 0.5
41 1 0.00130318 0.191314 0.5
61 1 0.00481143 0.291906 0.5
188 1 0.168852 0.938017 0.5
102 1 0.0246052 0.534021 0.5
204 1 0.139009 0.991493 0.5
104 1 0.0725783 0.535485 0.5
196 1 0.374665 0.928881 0.5
106 1 0.122944 0.541715 0.5
208 1 0.346936 0.986072 0.5
108 1 0.176685 0.543346 0.5
194 1 0.327281 0.936142 0.5
110 1 0.224578 0.542528 0.5
331 1 0.495644 0.579155 0.5
112 1 0.272453 0.538417 0.5
207 1 0.297055 0.981288 0.5
114 1 0.324777 0.539286 0.5
206 1 0.245119 0.979675 0.5
116 1 0.375087 0.534189 0.5
192 1 0.272581 0.932637 0.5
118 1 0.424131 0.536745 0.5
205 1 0.195736 0.982794 0.5
120 1 0.474432 0.5324 0.5
210 1 0.448851 0.98322 0.5
123 1 0.0474457 0.583888 0.5
125 1 0.0989299 0.587074 0.5
127 1 0.151444 0.58903 0.5
129 1 0.199096 0.592985 0.5
131 1 0.248281 0.591595 0.5
133 1 0.29759 0.584513 0.5
135 1 0.349863 0.585403 0.5
137 1 0.398138 0.58503 0.5
139 1 0.446624 0.582709 0.5
122 1 0.0220715 0.636523 0.5
200 1 0.482088 0.930118 0.5
143 1 0.0495862 0.685859 0.5
124 1 0.0754122 0.635194 0.5
145 1 0.0986676 0.68661 0.5
126 1 0.119958 0.63849 0.5
128 1 0.172477 0.63912 0.5
147 1 0.146763 0.68935 0.5
130 1 0.220719 0.641945 0.5
149 1 0.193533 0.686774 0.5
132 1 0.278344 0.637236 0.5
151 1 0.251129 0.686063 0.5
153 1 0.300003 0.689797 0.5
134 1 0.325745 0.634933 0.5
155 1 0.350276 0.686438 0.5
136 1 0.376034 0.636057 0.5
138 1 0.424974 0.635506 0.5
157 1 0.401427 0.683349 0.5
140 1 0.470914 0.628266 0.5
159 1 0.452438 0.68078 0.5
142 1 0.0234694 0.736238 0.5
144 1 0.0744715 0.73477 0.5
146 1 0.121927 0.738302 0.5
148 1 0.171809 0.741788 0.5
150 1 0.223912 0.731066 0.5
152 1 0.272634 0.738503 0.5
154 1 0.329287 0.738948 0.5
156 1 0.380493 0.733675 0.5
158 1 0.430925 0.728848 0.5
160 1 0.48193 0.729027 0.5
190 1 0.220472 0.931246 0.5
162 1 0.0217039 0.835464 0.5
163 1 0.0458347 0.782542 0.5
164 1 0.071941 0.832706 0.5
165 1 0.0941531 0.782831 0.5
166 1 0.120085 0.837627 0.5
167 1 0.145169 0.787742 0.5
168 1 0.169797 0.838524 0.5
169 1 0.197899 0.789119 0.5
170 1 0.220527 0.839198 0.5
171 1 0.246329 0.784258 0.5
172 1 0.269024 0.837041 0.5
173 1 0.303324 0.786193 0.5
174 1 0.320208 0.835235 0.5
175 1 0.35641 0.787662 0.5
176 1 0.374739 0.837551 0.5
177 1 0.407534 0.780576 0.5
178 1 0.430311 0.828389 0.5
179 1 0.456512 0.780394 0.5
180 1 0.477613 0.831108 0.5
209 1 0.396168 0.974435 0.5
183 1 0.0456026 0.888629 0.5
185 1 0.0938272 0.884871 0.5
187 1 0.143392 0.883207 0.5
189 1 0.192848 0.887635 0.5
191 1 0.246568 0.886353 0.5
193 1 0.296638 0.885267 0.5
195 1 0.348945 0.884517 0.5
197 1 0.407229 0.880375 0.5
199 1 0.453524 0.880239 0.5
182 1 0.0191359 0.9356 0.5
198 1 0.424124 0.931 0.5
202 1 0.0379204 0.985874 0.5
184 1 0.0668764 0.939627 0.5
203 1 0.0857185 0.998775 0.5
186 1 0.117048 0.934517 0.5
211 2 0.5 9.77083e-05 0.5
212 2 0.525 0.0489518 0.5
213 2 0.55 9.77083e-05 0.5
214 2 0.575 0.0489518 0.5
215 2 0.6 9.77083e-05 0.5
216 2 0.625 0.0489518 0.5
217 2 0.65 9.77083e-05 0.5
218 2 0.675 0.0489518 0.5
219 2 0.7 9.77083e-05 0.5
220 2 0.725 0.0489518 0.5
221 2 0.75 9.77083e-05 0.5
222 2 0.775 0.0489518 0.5
223 2 0.8 9.77083e-05 0.5
224 2 0.825 0.0489518 0.5
225 2 0.85 9.77083e-05 0.5
226 2 0.875 0.0489518 0.5
227 2 0.9 9.77083e-05 0.5
228 2 0.925 0.0489518 0.5
229 2 0.95 9.77083e-05 0.5
230 2 0.975 0.0489518 0.5
231 2 0.5 0.097806 0.5
233 2 0.55 0.097806 0.5
235 2 0.6 0.097806 0.5
237 2 0.65 0.097806 0.5
239 2 0.7 0.097806 0.5
241 2 0.75 0.097806 0.5
243 2 0.8 0.097806 0.5
245 2 0.85 0.097806 0.5
247 2 0.9 0.097806 0.5
249 2 0.95 0.097806 0.5
232 1 0.528023 0.146609 0.5
251 1 0.503026 0.196109 0.5
253 1 0.552486 0.19841 0.5
234 1 0.57861 0.144872 0.5
255 1 0.602636 0.197031 0.5
236 1 0.625298 0.143828 0.5
238 1 0.674294 0.144236 0.5
257 1 0.650615 0.196839 0.5
240 1 0.72541 0.143516 0.5
259 1 0.700085 0.193773 0.5
242 1 0.772078 0.147709 0.5
261 1 0.747505 0.195197 0.5
263 1 0.796065 0.195331 0.5
244 1 0.821505 0.147424 0.5
265 1 0.844557 0.195746 0.5
246 1 0.870165 0.149738 0.5
248 1 0.923212 0.145893 0.5
267 1 0.895515 0.196438 0.5
250 1 0.973671 0.146811 0.5
269 1 0.948249 0.194774 0.5
252 1 0.523816 0.245806 0.5
254 1 0.576947 0.245927 0.5
256 1 0.625556 0.24387 0.5
258 1 0.675766 0.246939 0.5
260 1 0.722958 0.244953 0.5
262 1 0.770731 0.244881 0.5
264 1 0.81993 0.245979 0.5
266 1 0.874654 0.247978 0.5
268 1 0.924932 0.244896 0.5
270 1 0.974394 0.240648 0.5
271 1 0.502334 0.298569 0.5
272 1 0.526476 0.342939 0.5
273 1 0.552482 0.294643 0.5
274 1 0.576361 0.344188 0.5
275 1 0.602365 0.295925 0.5
276 1 0.628188 0.347549 0.5
277 1 0.651985 0.295133 0.5
278 1 0.675129 0.346983 0.5
279 1 0.699985 0.29294 0.5
280 1 0.725048 0.342574 0.5
281 1 0.749629 0.295 0.5
282 1 0.778627 0.344896 0.5
283 1 0.797386 0.295068 0.5
284 1 0.8245 0.34098 0.5
285 1 0.845668 0.290672 0.5
286 1 0.877074 0.335939 0.5
287 1 0.905552 0.294059 0.5
288 1 0.931121 0.34104 0.5
289 1 0.953851 0.290214 0.5
290 1 0.977764 0.340093 0.5
323 1 0.801899 0.491485 0.5
293 1 0.551791 0.390345 0.5
295 1 0.603682 0.394852 0.5
297 1 0.652328 0.39816 0.5
299 1 0.705092 0.395134 0.5
301 1 0.753154 0.399254 0.5
303 1 0.798211 0.396937 0.5
305 1 0.847064 0.389907 0.5
307 1 0.898445 0.383273 0.5
309 1 0.953826 0.388615 0.5
292 1 0.526484 0.437208 0.5
294 1 0.576078 0.439871 0.5
296 1 0.624525 0.44452 0.5
298 1 0.676969 0.442096 0.5
300 1 0.728107 0.445249 0.5
302 1 0.780076 0.445049 0.5
304 1 0.828089 0.4429 0.5
306 1 0.874129 0.435364 0.5
308 1 0.926077 0.437228 0.5
310 1 0.976972 0.439067 0.5
317 1 0.651876 0.490645 0.5
327 1 0.902601 0.484366 0.5
329 1 0.950363 0.483801 0.5
325 1 0.851816 0.48787 0.5
313 1 0.548208 0.487342 0.5
315 1 0.600407 0.489894 0.5
321 1 0.751259 0.49374 0.5
319 1 0.701615 0.489997 0.5
311 1 0.500287 0.482317 0.5
201 1 0.990185 0.981157 0.5
312 1 0.519907 0.532354 0.5
181 1 0.994774 0.881689 0.5
314 1 0.570687 0.536129 0.5
418 1 0.847452 1.00041 0.5
316 1 0.626694 0.542522 0.5
417 1 0.798629 0.976205 0.5
318 1 0.677406 0.535533 0.5
416 1 0.751671 0.984422 0.5
320 1 0.725269 0.536182 0.5
121 1 0.999492 0.584793 0.5
322 1 0.777161 0.538246 0.5
419 1 0.896018 0.996886 0.5
324 1 0.826 0.538574 0.5
408 1 0.91703 0.935337 0.5
326 1 0.877103 0.536736 0.5
161 1 0.997608 0.784715 0.5
328 1 0.927256 0.53221 0.5
406 1 0.870341 0.950196 0.5
330 1 0.977621 0.533773 0.5
404 1 0.824159 0.925297 0.5
333 1 0.54223 0.579213 0.5
335 1 0.59639 0.583919 0.5
337 1 0.65088 0.587505 0.5
339 1 0.701356 0.585421 0.5
341 1 0.752248 0.585315 0.5
343 1 0.800808 0.585183 0.5
345 1 0.85222 0.587309 0.5
347 1 0.899852 0.585071 0.5
349 1 0.951163 0.582151 0.5
332 1 0.525245 0.632869 0.5
420 1 0.942036 0.982429 0.5
353 1 0.5519 0.678858 0.5
334 1 0.573622 0.630715 0.5
355 1 0.600822 0.679451 0.5
336 1 0.620064 0.632596 0.5
338 1 0.679604 0.636572 0.5
357 1 0.650614 0.678847 0.5
340 1 0.727795 0.635906 0.5
359 1 0.70443 0.682038 0.5
342 1 0.777886 0.637462 0.5
361 1 0.753231 0.682918 0.5
363 1 0.80181 0.683461 0.5
344 1 0.825304 0.632806 0.5
365 1 0.851061 0.681704 0.5
346 1 0.873549 0.633348 0.5
348 1 0.925183 0.633606 0.5
367 1 0.901 0.680981 0.5
350 1 0.974758 0.632346 0.5
369 1 0.949415 0.682186 0.5
352 1 0.530133 0.732549 0.5
354 1 0.577856 0.729709 0.5
356 1 0.62515 0.728282 0.5
358 1 0.674562 0.726421 0.5
360 1 0.730327 0.730901 0.5
362 1 0.776528 0.729275 0.5
364 1 0.826747 0.73407 0.5
366 1 0.873736 0.734716 0.5
368 1 0.922897 0.728898 0.5
370 1 0.970693 0.733153 0.5
371 1 0.504999 0.778793 0.5
372 1 0.527711 0.825962 0.5
373 1 0.553618 0.77966 0.5
374 1 0.576544 0.828812 0.5
375 1 0.601546 0.778451 0.5
376 1 0.62546 0.82545 0.5
377 1 0.650584 0.778374 0.5
378 1 0.678629 0.825613 0.5
379 1 0.700512 0.780052 0.5
380 1 0.726006 0.825653 0.5
381 1 0.751297 0.778361 0.5
382 1 0.774803 0.829842 0.5
383 1 0.802126 0.784719 0.5
384 1 0.825649 0.829086 0.5
385 1 0.85118 0.781495 0.5
386 1 0.873824 0.831617 0.5
387 1 0.901038 0.780399 0.5
388 1 0.922123 0.829839 0.5
389 1 0.949743 0.780253 0.5
390 1 0.970567 0.832959 0.5
391 1 0.502717 0.878753 0.5
393 1 0.552362 0.875168 0.5
395 1 0.603245 0.876807 0.5
397 1 0.652495 0.878055 0.5
399 1 0.701011 0.882205 0.5
401 1 0.750529 0.877533 0.5
403 1 0.80245 0.877487 0.5
405 1 0.850386 0.880264 0.5
407 1 0.898068 0.884528 0.5
409 1 0.946506 0.879886 0.5
392 1 0.532103 0.939402 0.5
410 1 0.965438 0.931682 0.5
412 1 0.559565 0.987683 0.5
394 1 0.578203 0.921565 0.5
413 1 0.602933 0.967592 0.5
396 1 0.628641 0.925311 0.5
398 1 0.678978 0.933401 0.5
414 1 0.648949 0.978698 0.5
400 1 0.728083 0.932066 0.5
415 1 0.702458 0.981015 0.5
402 1 0.77522 0.927126 0.5
351 1 0.502157 0.679784 0.5
411 1 0.502569 0.982717 0.5
141 1 0.997354 0.68473 0.5
ITEM: TIMESTEP
500
ITEM: NUMBER OF ATOMS
420
ITEM: BOX BOUNDS pp ss pp
0.0000000000000000e+00 2.2653923264628304e+01
-1.9618873042551413e-03 1.9849448338022540e+01
-2.8317404080785380e-01 2.8317404080785380e-01
ITEM: ATOMS id type xs ys zs
1 2 0 9.88286e-05 0.5
2 2 0.025 0.0495131 0.5
3 2 0.05 9.88286e-05 0.5
4 2 0.075 0.0495131 0.5
5 2 0.1 9.88286e-05 0.5
6 2 0.125 0.0495131 0.5
7 2 0.15 9.88286e-05 0.5
8 2 0.175 0.0495131 0.5
9 2 0.2 9.88286e-05 0.5
10 2 0.225 0.0495131 0.5
11 2 0.25 9.88286e-05 0.5
12 2 0.275 0.0495131 0.5
13 2 0.3 9.88286e-05 0.5
14 2 0.325 0.0495131 0.5
15 2 0.35 9.88286e-05 0.5
16 2 0.375 0.0495131 0.5
17 2 0.4 9.88286e-05 0.5
18 2 0.425 0.0495131 0.5
19 2 0.45 9.88286e-05 0.5
20 2 0.475 0.0495131 0.5
21 2 0 0.0989274 0.5
23 2 0.05 0.0989274 0.5
25 2 0.1 0.0989274 0.5
27 2 0.15 0.0989274 0.5
29 2 0.2 0.0989274 0.5
31 2 0.25 0.0989274 0.5
33 2 0.3 0.0989274 0.5
35 2 0.35 0.0989274 0.5
37 2 0.4 0.0989274 0.5
39 2 0.45 0.0989274 0.5
22 1 0.0247333 0.151262 0.5
100 1 0.475492 0.447527 0.5
43 1 0.0525617 0.200051 0.5
24 1 0.0780178 0.147902 0.5
45 1 0.100405 0.196199 0.5
26 1 0.124252 0.14686 0.5
28 1 0.173279 0.145034 0.5
47 1 0.150292 0.198085 0.5
30 1 0.22711 0.146276 0.5
49 1 0.198956 0.191563 0.5
32 1 0.275251 0.147557 0.5
51 1 0.250246 0.196753 0.5
53 1 0.297364 0.198188 0.5
34 1 0.324873 0.144975 0.5
55 1 0.347686 0.198221 0.5
36 1 0.37364 0.150402 0.5
38 1 0.423707 0.149285 0.5
57 1 0.396727 0.198735 0.5
40 1 0.472271 0.145949 0.5
59 1 0.448008 0.198136 0.5
42 1 0.0242431 0.247076 0.5
44 1 0.0768108 0.251298 0.5
46 1 0.1276 0.244724 0.5
48 1 0.176204 0.248978 0.5
50 1 0.223915 0.244094 0.5
52 1 0.275417 0.250049 0.5
54 1 0.322251 0.246336 0.5
56 1 0.372902 0.247965 0.5
58 1 0.422804 0.245259 0.5
60 1 0.470514 0.246494 0.5
98 1 0.426615 0.444496 0.5
62 1 0.024724 0.347852 0.5
63 1 0.049402 0.301492 0.5
64 1 0.0746753 0.346143 0.5
65 1 0.0988112 0.298245 0.5
66 1 0.124304 0.348373 0.5
67 1 0.150937 0.297408 0.5
68 1 0.172885 0.344168 0.5
69 1 0.200879 0.297506 0.5
70 1 0.226977 0.347592 0.5
71 1 0.249561 0.297392 0.5
72 1 0.273512 0.34767 0.5
73 1 0.296826 0.299272 0.5
74 1 0.321534 0.348275 0.5
75 1 0.348246 0.295242 0.5
76 1 0.373765 0.345309 0.5
77 1 0.401709 0.298362 0.5
78 1 0.423172 0.349031 0.5
79 1 0.450525 0.29744 0.5
80 1 0.475609 0.346633 0.5
96 1 0.377549 0.444357 0.5
83 1 0.0507823 0.394003 0.5
85 1 0.099156 0.396162 0.5
87 1 0.150814 0.39623 0.5
89 1 0.199685 0.39672 0.5
91 1 0.252842 0.395919 0.5
93 1 0.301639 0.398335 0.5
95 1 0.35239 0.39394 0.5
97 1 0.400625 0.39613 0.5
99 1 0.450618 0.397902 0.5
82 1 0.0272838 0.445057 0.5
84 1 0.0760106 0.443757 0.5
86 1 0.122364 0.446667 0.5
88 1 0.171903 0.444071 0.5
90 1 0.22439 0.444916 0.5
92 1 0.276579 0.445304 0.5
94 1 0.32858 0.443012 0.5
41 1 0.00205314 0.199047 0.5
103 1 0.0531468 0.491998 0.5
105 1 0.100304 0.496998 0.5
107 1 0.150766 0.494858 0.5
109 1 0.200934 0.494965 0.5
113 1 0.302215 0.4942 0.5
115 1 0.351818 0.492677 0.5
117 1 0.402273 0.495223 0.5
311 1 0.499195 0.496137 0.5
81 1 0.00277398 0.397857 0.5
291 1 0.49809 0.395112 0.5
111 1 0.249018 0.492878 0.5
251 1 0.496812 0.19768 0.5
101 1 0.00278518 0.497691 0.5
188 1 0.173787 0.948848 0.5
102 1 0.0254869 0.544088 0.5
204 1 0.149788 0.997827 0.5
104 1 0.075259 0.545929 0.5
196 1 0.373952 0.941201 0.5
106 1 0.124579 0.545446 0.5
208 1 0.347637 0.994007 0.5
108 1 0.174987 0.544009 0.5
194 1 0.325455 0.9431 0.5
110 1 0.223615 0.547143 0.5
141 1 0.00283619 0.696871 0.5
112 1 0.275948 0.539966 0.5
207 1 0.296596 0.992164 0.5
114 1 0.326564 0.545844 0.5
206 1 0.246605 0.994564 0.5
116 1 0.375257 0.543166 0.5
192 1 0.275309 0.942949 0.5
118 1 0.427823 0.546943 0.5
205 1 0.198907 0.999759 0.5
120 1 0.478494 0.548266 0.5
210 1 0.449319 0.987959 0.5
123 1 0.051939 0.592952 0.5
125 1 0.102774 0.594723 0.5
127 1 0.150262 0.593221 0.5
129 1 0.198783 0.594667 0.5
131 1 0.251646 0.593684 0.5
133 1 0.300801 0.592078 0.5
135 1 0.348713 0.596368 0.5
137 1 0.402158 0.594205 0.5
139 1 0.449727 0.59662 0.5
122 1 0.0265185 0.650173 0.5
200 1 0.474447 0.940637 0.5
143 1 0.0542256 0.697108 0.5
124 1 0.0797239 0.641874 0.5
145 1 0.100623 0.695129 0.5
126 1 0.130253 0.645921 0.5
128 1 0.176858 0.644148 0.5
147 1 0.151951 0.6986 0.5
130 1 0.22402 0.644666 0.5
149 1 0.19964 0.693921 0.5
132 1 0.274819 0.643112 0.5
151 1 0.24926 0.692201 0.5
153 1 0.300204 0.696497 0.5
134 1 0.322859 0.647173 0.5
155 1 0.349675 0.696191 0.5
136 1 0.373171 0.642389 0.5
138 1 0.424414 0.644789 0.5
157 1 0.397822 0.697477 0.5
140 1 0.475601 0.645445 0.5
159 1 0.448121 0.698184 0.5
142 1 0.0262833 0.746017 0.5
144 1 0.0753356 0.746843 0.5
146 1 0.127074 0.74648 0.5
148 1 0.174977 0.748082 0.5
150 1 0.224679 0.747244 0.5
152 1 0.273284 0.742607 0.5
154 1 0.324001 0.749795 0.5
156 1 0.372255 0.74579 0.5
158 1 0.422492 0.74573 0.5
160 1 0.472706 0.748441 0.5
190 1 0.225884 0.943573 0.5
162 1 0.0223543 0.844935 0.5
163 1 0.0505635 0.793446 0.5
164 1 0.0726592 0.845307 0.5
165 1 0.101107 0.796462 0.5
166 1 0.124545 0.843786 0.5
167 1 0.148965 0.79897 0.5
168 1 0.173767 0.847794 0.5
169 1 0.198844 0.796065 0.5
170 1 0.223486 0.848246 0.5
171 1 0.246896 0.79672 0.5
172 1 0.273755 0.846017 0.5
173 1 0.299719 0.798047 0.5
174 1 0.32288 0.845561 0.5
175 1 0.350012 0.797119 0.5
176 1 0.371969 0.844631 0.5
177 1 0.399792 0.796674 0.5
178 1 0.4224 0.843258 0.5
179 1 0.446583 0.796624 0.5
180 1 0.470788 0.844967 0.5
209 1 0.400559 0.991723 0.5
183 1 0.0481951 0.899341 0.5
185 1 0.0989593 0.895995 0.5
187 1 0.149132 0.896013 0.5
189 1 0.197862 0.900174 0.5
191 1 0.24878 0.897422 0.5
193 1 0.300356 0.895978 0.5
195 1 0.349663 0.894567 0.5
197 1 0.39842 0.891035 0.5
199 1 0.446944 0.893241 0.5
182 1 0.0208565 0.944786 0.5
198 1 0.421394 0.941988 0.5
202 1 0.044544 0.992672 0.5
184 1 0.0730263 0.946763 0.5
203 1 0.0980012 0.997878 0.5
186 1 0.124746 0.950185 0.5
391 1 0.496112 0.890238 0.5
351 1 0.498579 0.694379 0.5
371 1 0.496124 0.795762 0.5
121 1 0.00409081 0.59829 0.5
411 1 0.498039 0.98618 0.5
119 1 0.452072 0.501039 0.5
211 2 0.5 9.88286e-05 0.5
212 2 0.525 0.0495131 0.5
213 2 0.55 9.88286e-05 0.5
214 2 0.575 0.0495131 0.5
215 2 0.6 9.88286e-05 0.5
216 2 0.625 0.0495131 0.5
217 2 0.65 9.88286e-05 0.5
218 2 0.675 0.0495131 0.5
219 2 0.7 9.88286e-05 0.5
220 2 0.725 0.0495131 0.5
221 2 0.75 9.88286e-05 0.5
222 2 0.775 0.0495131 0.5
223 2 0.8 9.88286e-05 0.5
224 2 0.825 0.0495131 0.5
225 2 0.85 9.88286e-05 0.5
226 2 0.875 0.0495131 0.5
227 2 0.9 9.88286e-05 0.5
228 2 0.925 0.0495131 0.5
229 2 0.95 9.88286e-05 0.5
230 2 0.975 0.0495131 0.5
231 2 0.5 0.0989274 0.5
233 2 0.55 0.0989274 0.5
235 2 0.6 0.0989274 0.5
237 2 0.65 0.0989274 0.5
239 2 0.7 0.0989274 0.5
241 2 0.75 0.0989274 0.5
243 2 0.8 0.0989274 0.5
245 2 0.85 0.0989274 0.5
247 2 0.9 0.0989274 0.5
249 2 0.95 0.0989274 0.5
232 1 0.523189 0.146335 0.5
321 1 0.750423 0.487798 0.5
253 1 0.548509 0.197443 0.5
234 1 0.574213 0.148697 0.5
255 1 0.602731 0.195038 0.5
236 1 0.625932 0.147731 0.5
238 1 0.677459 0.146744 0.5
257 1 0.652765 0.195241 0.5
240 1 0.728718 0.147376 0.5
259 1 0.704538 0.198577 0.5
242 1 0.777405 0.146269 0.5
261 1 0.753562 0.196049 0.5
263 1 0.80135 0.195277 0.5
244 1 0.825782 0.147245 0.5
265 1 0.852321 0.195457 0.5
246 1 0.874265 0.146512 0.5
248 1 0.925077 0.147932 0.5
267 1 0.902149 0.197201 0.5
250 1 0.976146 0.1489 0.5
269 1 0.951412 0.197111 0.5
252 1 0.525344 0.244497 0.5
254 1 0.575482 0.24242 0.5
256 1 0.623824 0.2431 0.5
258 1 0.675196 0.243122 0.5
260 1 0.728318 0.245166 0.5
262 1 0.779103 0.243919 0.5
264 1 0.828269 0.243598 0.5
266 1 0.876316 0.247381 0.5
268 1 0.924264 0.246787 0.5
270 1 0.976636 0.245757 0.5
319 1 0.700188 0.491672 0.5
272 1 0.525025 0.345687 0.5
273 1 0.548533 0.295401 0.5
274 1 0.574423 0.344381 0.5
275 1 0.596693 0.292498 0.5
276 1 0.622942 0.34254 0.5
277 1 0.648756 0.296766 0.5
278 1 0.672465 0.347384 0.5
279 1 0.697529 0.292927 0.5
280 1 0.726162 0.343616 0.5
281 1 0.755007 0.291269 0.5
282 1 0.775526 0.3447 0.5
283 1 0.802271 0.294449 0.5
284 1 0.827628 0.343404 0.5
285 1 0.851661 0.293484 0.5
286 1 0.876848 0.344539 0.5
287 1 0.900628 0.297105 0.5
288 1 0.924795 0.345934 0.5
289 1 0.951081 0.297553 0.5
290 1 0.97723 0.351198 0.5
323 1 0.801189 0.49407 0.5
293 1 0.546793 0.393796 0.5
295 1 0.596522 0.393892 0.5
297 1 0.643238 0.390576 0.5
299 1 0.699467 0.388761 0.5
301 1 0.748773 0.391214 0.5
303 1 0.803498 0.393423 0.5
305 1 0.853615 0.39487 0.5
307 1 0.89975 0.393333 0.5
309 1 0.952629 0.399392 0.5
292 1 0.524197 0.442899 0.5
294 1 0.573461 0.444783 0.5